 Entering Gaussian System, Link 0=g16
 Initial command:
 /temporario/apps/gnu/g16/l1.exe "/temporario/9083010/g16/tmp/Gau-21436.inp" -scrdir="/temporario/9083010/g16/tmp/"
 Entering Link 1 = /temporario/apps/gnu/g16/l1.exe PID=     21437.
  
 Copyright (c) 1988-2019, Gaussian, Inc.  All Rights Reserved.
  
 This is part of the Gaussian(R) 16 program.  It is based on
 the Gaussian(R) 09 system (copyright 2009, Gaussian, Inc.),
 the Gaussian(R) 03 system (copyright 2003, Gaussian, Inc.),
 the Gaussian(R) 98 system (copyright 1998, Gaussian, Inc.),
 the Gaussian(R) 94 system (copyright 1995, Gaussian, Inc.),
 the Gaussian 92(TM) system (copyright 1992, Gaussian, Inc.),
 the Gaussian 90(TM) system (copyright 1990, Gaussian, Inc.),
 the Gaussian 88(TM) system (copyright 1988, Gaussian, Inc.),
 the Gaussian 86(TM) system (copyright 1986, Carnegie Mellon
 University), and the Gaussian 82(TM) system (copyright 1983,
 Carnegie Mellon University). Gaussian is a federally registered
 trademark of Gaussian, Inc.
  
 This software contains proprietary and confidential information,
 including trade secrets, belonging to Gaussian, Inc.
  
 This software is provided under written license and may be
 used, copied, transmitted, or stored only in accord with that
 written license.
  
 The following legend is applicable only to US Government
 contracts under FAR:
  
                    RESTRICTED RIGHTS LEGEND
  
 Use, reproduction and disclosure by the US Government is
 subject to restrictions as set forth in subparagraphs (a)
 and (c) of the Commercial Computer Software - Restricted
 Rights clause in FAR 52.227-19.
  
 Gaussian, Inc.
 340 Quinnipiac St., Bldg. 40, Wallingford CT 06492
  
  
 ---------------------------------------------------------------
 Warning -- This program may not be used in any manner that
 competes with the business of Gaussian, Inc. or will provide
 assistance to any competitor of Gaussian, Inc.  The licensee
 of this program is prohibited from giving any competitor of
 Gaussian, Inc. access to this program.  By using this program,
 the user acknowledges that Gaussian, Inc. is engaged in the
 business of creating and licensing software in the field of
 computational chemistry and represents and warrants to the
 licensee that it is not a competitor of Gaussian, Inc. and that
 it will not use this program in any manner prohibited above.
 ---------------------------------------------------------------
  

 Cite this work as:
 Gaussian 16, Revision C.01,
 M. J. Frisch, G. W. Trucks, H. B. Schlegel, G. E. Scuseria, 
 M. A. Robb, J. R. Cheeseman, G. Scalmani, V. Barone, 
 G. A. Petersson, H. Nakatsuji, X. Li, M. Caricato, A. V. Marenich, 
 J. Bloino, B. G. Janesko, R. Gomperts, B. Mennucci, H. P. Hratchian, 
 J. V. Ortiz, A. F. Izmaylov, J. L. Sonnenberg, D. Williams-Young, 
 F. Ding, F. Lipparini, F. Egidi, J. Goings, B. Peng, A. Petrone, 
 T. Henderson, D. Ranasinghe, V. G. Zakrzewski, J. Gao, N. Rega, 
 G. Zheng, W. Liang, M. Hada, M. Ehara, K. Toyota, R. Fukuda, 
 J. Hasegawa, M. Ishida, T. Nakajima, Y. Honda, O. Kitao, H. Nakai, 
 T. Vreven, K. Throssell, J. A. Montgomery, Jr., J. E. Peralta, 
 F. Ogliaro, M. J. Bearpark, J. J. Heyd, E. N. Brothers, K. N. Kudin, 
 V. N. Staroverov, T. A. Keith, R. Kobayashi, J. Normand, 
 K. Raghavachari, A. P. Rendell, J. C. Burant, S. S. Iyengar, 
 J. Tomasi, M. Cossi, J. M. Millam, M. Klene, C. Adamo, R. Cammi, 
 J. W. Ochterski, R. L. Martin, K. Morokuma, O. Farkas, 
 J. B. Foresman, and D. J. Fox, Gaussian, Inc., Wallingford CT, 2019.
 
 ******************************************
 Gaussian 16:  EM64L-G16RevC.01  3-Jul-2019
                 3-Oct-2023 
 ******************************************
 %NProcShared=20
 Will use up to   20 processors via shared memory.
 %Mem=480gb
 %OldChk=trimer_org.chk
 Copying data from "trimer_org.chk" to current chk file "/temporario/9083010/g16/tmp/Gau-21437.chk"
 IOpt=  2 FromEx=T IUOpen= 4 IOptOp= 5 NList=   0 IFRang= 0 IUIn= 4 IUOut= 2.
 ----------------------------------------------------------------------
 #P M06/6-311G(d,p) Guess=Read Geom=Check SCF(Tight) SCRF(PCM, solvent=
 n-Octanol) pop=chelpg
 ----------------------------------------------------------------------
 1/29=2,38=1,172=1/1;
 2/12=2,40=1/2;
 3/5=4,6=6,7=101,11=2,14=-4,25=1,30=1,70=2201,72=25,74=-54,116=-2/1,2,3;
 4/5=1/1;
 5/5=2,32=2,38=6,53=25/2;
 6/7=2,8=2,9=2,10=2,15=8,20=3,28=1/1,2;
 99/5=1,9=1/99;
 Leave Link    1 at Tue Oct  3 18:33:21 2023, MaxMem= 64424509440 cpu:              43.3 elap:               2.3
 (Enter /temporario/apps/gnu/g16/l101.exe)
 ----------------------------------------------------------------------
 P(Qx8O-T) trimer charge population via CHELPG with organic solvent n-O
 ctanol
 ----------------------------------------------------------------------
 Structure from the checkpoint file:  "/temporario/9083010/g16/tmp/Gau-21437.chk"
 Charge =  0 Multiplicity = 1
 Redundant internal coordinates found in file.  (old form).
 C,0,-0.2792195688,-10.1514067629,0.0379213114
 C,0,1.4422842651,-8.638404523,-0.6201262912
 C,0,2.4183495109,-9.6117311385,-0.2928279812
 C,0,2.0246917772,-10.8665051011,0.2002844344
 C,0,0.6944739765,-11.1087700217,0.357030254
 C,0,4.07441563,-8.1823292846,-0.8896679791
 C,0,3.1015222517,-7.1899051024,-1.2169349621
 N,0,3.7466102555,-9.3555141286,-0.4417817018
 N,0,1.8342220766,-7.4238696882,-1.0843477918
 C,0,0.0452727369,-8.9071661472,-0.4681880945
 F,0,0.2676246694,-12.27355013,0.8337189112
 F,0,-1.5423369268,-10.5090041454,0.2660495559
 C,0,-2.6335697167,-2.2345659755,-2.0490147896
 C,0,-4.6916213999,-2.837939102,-1.0250774886
 C,0,-4.2049704659,-4.1596569944,-0.8515426773
 C,0,-2.9036764852,-4.5383634985,-1.3073905843
 C,0,-2.157443827,-3.5387217715,-1.8880910908
 C,0,-6.1465869413,-4.7373875416,0.206410518
 C,0,-6.6341229702,-3.4135764329,0.0093849712
 H,0,-6.765681261,-5.4661318897,0.7269990469
 N,0,-4.9712183131,-5.0846445614,-0.2129203741
 N,0,-5.9265513593,-2.5000048725,-0.5784250686
 C,0,-3.8875541752,-1.8342806116,-1.6462027573
 F,0,-0.9344668933,-3.7791222121,-2.360570324
 F,0,-1.8089108103,-1.3813338021,-2.6516112909
 C,0,-5.0447935044,5.6802699723,-2.8121165362
 C,0,-3.1431834747,5.5458167815,-1.4095357243
 C,0,-3.3086177034,4.1394932477,-1.3452349143
 C,0,-4.3734363696,3.4687981551,-2.0203109446
 C,0,-5.2050081723,4.2920953543,-2.7509798057
 C,0,-1.4648879506,3.9797151544,0.000271126
 C,0,-1.3162821117,5.3948490385,-0.0553897576
 H,0,-0.7588528268,3.3852115923,0.5769001653
 N,0,-2.4349930983,3.3917639637,-0.6242667464
 N,0,-2.1281382266,6.1436596137,-0.7373717566
 O,0,-0.2983541009,5.9024501382,0.6289427217
 C,0,-3.8962790119,7.8098385702,-2.2941347587
 C,0,-4.3540422653,8.6051219079,-3.3181898499
 C,0,-4.1451739241,9.9846868495,-3.1056977186
 H,0,-4.8238008683,8.2061854426,-4.2066236822
 C,0,-3.5409148514,10.2411896655,-1.9125418146
 H,0,-4.4295827983,10.7535459249,-3.8138302076
 C,0,-4.0273257555,6.3616356736,-2.175503577
 F,0,-6.2259965114,3.8054557281,-3.4555034858
 F,0,-5.9535530072,6.3252537059,-3.5394580419
 H,0,2.7655135996,-11.6155307176,0.453007118
 H,0,-3.2504054058,11.1972007511,-1.4987566158
 C,0,-4.3594647722,-0.4669071102,-1.8436164002
 C,0,-5.6275475414,-0.049318086,-2.1595686274
 C,0,-5.7484171713,1.3461589286,-2.2425013062
 H,0,-6.4472704353,-0.735488036,-2.3241570476
 C,0,-4.5829851768,2.0270567668,-1.9649594401
 H,0,-6.6751196998,1.8412588219,-2.4947075983
 C,0,-0.9973019909,-7.9424926697,-0.8054421167
 C,0,-2.3144349269,-8.2160283113,-1.1013976618
 C,0,-3.0999325108,-7.072609102,-1.3081353205
 H,0,-2.7058328652,-9.2210060546,-1.1740693818
 C,0,-2.3989449572,-5.900640793,-1.1734300175
 H,0,-4.1536471395,-7.1015788296,-1.5492939329
 S,0,-0.7243644129,-6.2223496838,-0.8269985977
 S,0,-3.3075494935,0.8965740957,-1.5933689766
 S,0,-3.1774182268,8.801969369,-1.0466433153
 C,0,-0.1405560468,7.318658858,0.6012216553
 H,0,3.431308957,-6.2206274392,-1.5862553082
 O,0,5.3421762841,-7.8287494367,-1.0723658944
 C,0,6.3377849788,-8.7972024969,-0.7555081965
 O,0,-7.8533799595,-3.1597813619,0.4740464783
 C,0,-8.3586380947,-1.8428068007,0.2713895172
 H,0,-9.3314484856,-1.8190534183,0.758759635
 H,0,-8.4665544755,-1.6323242232,-0.7965936732
 H,0,-7.6913695293,-1.0973338651,0.7122595442
 H,0,0.7520853571,7.5297240411,1.186841047
 H,0,-1.010272548,7.8110441559,1.0445279981
 H,0,-0.0172505655,7.6749023037,-0.4251153595
 H,0,7.2932328776,-8.3217862702,-0.9687275591
 H,0,6.2147356024,-9.6935070297,-1.3691482725
 H,0,6.2811792712,-9.0792973962,0.2991251803
 Recover connectivity data from disk.
 ITRead=  0  0  0  0  0  0  0  0  0  0  0  0  0  0  0  0  0  0  0  0
 ITRead=  0  0  0  0  0  0  0  0  0  0  0  0  0  0  0  0  0  0  0  0
 ITRead=  0  0  0  0  0  0  0  0  0  0  0  0  0  0  0  0  0  0  0  0
 ITRead=  0  0  0  0  0  0  0  0  0  0  0  0  0  0  0  0  0
 MicOpt= -1 -1 -1 -1 -1 -1 -1 -1 -1 -1 -1 -1 -1 -1 -1 -1 -1 -1 -1 -1
 MicOpt= -1 -1 -1 -1 -1 -1 -1 -1 -1 -1 -1 -1 -1 -1 -1 -1 -1 -1 -1 -1
 MicOpt= -1 -1 -1 -1 -1 -1 -1 -1 -1 -1 -1 -1 -1 -1 -1 -1 -1 -1 -1 -1
 MicOpt= -1 -1 -1 -1 -1 -1 -1 -1 -1 -1 -1 -1 -1 -1 -1 -1 -1
                           ----------------------------
                           !    Current Parameters    !
                           ! (Angstroms and Degrees)  !
 --------------------------                            --------------------------
 ! Name  Definition              Value                                          !
 --------------------------------------------------------------------------------
 ! R1    R(1,5)                  1.4023                                         !
 ! R2    R(1,10)                 1.3819                                         !
 ! R3    R(1,12)                 1.3324                                         !
 ! R4    R(2,3)                  1.4168                                         !
 ! R5    R(2,9)                  1.358                                          !
 ! R6    R(2,10)                 1.4307                                         !
 ! R7    R(3,4)                  1.4045                                         !
 ! R8    R(3,8)                  1.3609                                         !
 ! R9    R(4,5)                  1.3612                                         !
 ! R10   R(4,46)                 1.0834                                         !
 ! R11   R(5,11)                 1.329                                          !
 ! R12   R(6,7)                  1.4278                                         !
 ! R13   R(6,8)                  1.2979                                         !
 ! R14   R(6,65)                 1.3288                                         !
 ! R15   R(7,9)                  1.2955                                         !
 ! R16   R(7,64)                 1.0884                                         !
 ! R17   R(10,54)                1.4599                                         !
 ! R18   R(13,17)                1.3976                                         !
 ! R19   R(13,23)                1.3766                                         !
 ! R20   R(13,25)                1.3309                                         !
 ! R21   R(14,15)                1.4191                                         !
 ! R22   R(14,22)                1.356                                          !
 ! R23   R(14,23)                1.4282                                         !
 ! R24   R(15,16)                1.4299                                         !
 ! R25   R(15,21)                1.3604                                         !
 ! R26   R(16,17)                1.376                                          !
 ! R27   R(16,58)                1.4589                                         !
 ! R28   R(17,24)                1.3329                                         !
 ! R29   R(18,19)                1.4244                                         !
 ! R30   R(18,20)                1.0887                                         !
 ! R31   R(18,21)                1.2953                                         !
 ! R32   R(19,22)                1.2965                                         !
 ! R33   R(19,67)                1.3293                                         !
 ! R34   R(23,48)                1.4599                                         !
 ! R35   R(26,30)                1.3987                                         !
 ! R36   R(26,43)                1.3801                                         !
 ! R37   R(26,45)                1.3307                                         !
 ! R38   R(27,28)                1.4175                                         !
 ! R39   R(27,35)                1.3563                                         !
 ! R40   R(27,43)                1.4262                                         !
 ! R41   R(28,29)                1.4281                                         !
 ! R42   R(28,34)                1.3572                                         !
 ! R43   R(29,30)                1.3796                                         !
 ! R44   R(29,52)                1.4579                                         !
 ! R45   R(30,44)                1.3325                                         !
 ! R46   R(31,32)                1.424                                          !
 ! R47   R(31,33)                1.0883                                         !
 ! R48   R(31,34)                1.2949                                         !
 ! R49   R(32,35)                1.298                                          !
 ! R50   R(32,36)                1.3275                                         !
 ! R51   R(36,63)                1.4252                                         !
 ! R52   R(37,38)                1.375                                          !
 ! R53   R(37,43)                1.459                                          !
 ! R54   R(37,62)                1.7485                                         !
 ! R55   R(38,39)                1.4114                                         !
 ! R56   R(38,40)                1.0813                                         !
 ! R57   R(39,41)                1.3618                                         !
 ! R58   R(39,42)                1.0833                                         !
 ! R59   R(41,47)                1.0815                                         !
 ! R60   R(41,62)                1.7185                                         !
 ! R61   R(48,49)                1.3719                                         !
 ! R62   R(48,61)                1.7402                                         !
 ! R63   R(49,50)                1.4032                                         !
 ! R64   R(49,51)                1.0816                                         !
 ! R65   R(50,52)                1.378                                          !
 ! R66   R(50,53)                1.0805                                         !
 ! R67   R(52,61)                1.7444                                         !
 ! R68   R(54,55)                1.3774                                         !
 ! R69   R(54,60)                1.7418                                         !
 ! R70   R(55,56)                1.4026                                         !
 ! R71   R(55,57)                1.081                                          !
 ! R72   R(56,58)                1.3722                                         !
 ! R73   R(56,59)                1.0813                                         !
 ! R74   R(58,60)                1.74                                           !
 ! R75   R(63,72)                1.0883                                         !
 ! R76   R(63,73)                1.0933                                         !
 ! R77   R(63,74)                1.0934                                         !
 ! R78   R(65,66)                1.4246                                         !
 ! R79   R(66,75)                1.0883                                         !
 ! R80   R(66,76)                1.0932                                         !
 ! R81   R(66,77)                1.0932                                         !
 ! R82   R(67,68)                1.4251                                         !
 ! R83   R(68,69)                1.0883                                         !
 ! R84   R(68,70)                1.0939                                         !
 ! R85   R(68,71)                1.0933                                         !
 ! A1    A(5,1,10)             122.3443                                         !
 ! A2    A(5,1,12)             115.8518                                         !
 ! A3    A(10,1,12)            121.8002                                         !
 ! A4    A(3,2,9)              119.6407                                         !
 ! A5    A(3,2,10)             121.2735                                         !
 ! A6    A(9,2,10)             119.0856                                         !
 ! A7    A(2,3,4)              120.1184                                         !
 ! A8    A(2,3,8)              121.1837                                         !
 ! A9    A(4,3,8)              118.6975                                         !
 ! A10   A(3,4,5)              118.2526                                         !
 ! A11   A(3,4,46)             120.5252                                         !
 ! A12   A(5,4,46)             121.2212                                         !
 ! A13   A(1,5,4)              122.0632                                         !
 ! A14   A(1,5,11)             117.1917                                         !
 ! A15   A(4,5,11)             120.7432                                         !
 ! A16   A(7,6,8)              122.3652                                         !
 ! A17   A(7,6,65)             115.6993                                         !
 ! A18   A(8,6,65)             121.9355                                         !
 ! A19   A(6,7,9)              121.1699                                         !
 ! A20   A(6,7,64)             119.3612                                         !
 ! A21   A(9,7,64)             119.4688                                         !
 ! A22   A(3,8,6)              117.0307                                         !
 ! A23   A(2,9,7)              118.6085                                         !
 ! A24   A(1,10,2)             115.9332                                         !
 ! A25   A(1,10,54)            120.7892                                         !
 ! A26   A(2,10,54)            123.2749                                         !
 ! A27   A(17,13,23)           123.2275                                         !
 ! A28   A(17,13,25)           116.0575                                         !
 ! A29   A(23,13,25)           120.6991                                         !
 ! A30   A(15,14,22)           120.2741                                         !
 ! A31   A(15,14,23)           120.9736                                         !
 ! A32   A(22,14,23)           118.7413                                         !
 ! A33   A(14,15,16)           121.3172                                         !
 ! A34   A(14,15,21)           119.8373                                         !
 ! A35   A(16,15,21)           118.8283                                         !
 ! A36   A(15,16,17)           115.8286                                         !
 ! A37   A(15,16,58)           122.2                                            !
 ! A38   A(17,16,58)           121.9706                                         !
 ! A39   A(13,17,16)           122.8017                                         !
 ! A40   A(13,17,24)           116.1064                                         !
 ! A41   A(16,17,24)           121.0746                                         !
 ! A42   A(19,18,20)           119.5761                                         !
 ! A43   A(19,18,21)           120.9931                                         !
 ! A44   A(20,18,21)           119.4271                                         !
 ! A45   A(18,19,22)           122.0601                                         !
 ! A46   A(18,19,67)           116.2979                                         !
 ! A47   A(22,19,67)           121.6388                                         !
 ! A48   A(15,21,18)           118.7368                                         !
 ! A49   A(14,22,19)           118.0846                                         !
 ! A50   A(13,23,14)           115.835                                          !
 ! A51   A(13,23,48)           121.819                                          !
 ! A52   A(14,23,48)           122.346                                          !
 ! A53   A(30,26,43)           123.6593                                         !
 ! A54   A(30,26,45)           115.2578                                         !
 ! A55   A(43,26,45)           121.0829                                         !
 ! A56   A(28,27,35)           120.1447                                         !
 ! A57   A(28,27,43)           121.3015                                         !
 ! A58   A(35,27,43)           118.5537                                         !
 ! A59   A(27,28,29)           122.1091                                         !
 ! A60   A(27,28,34)           119.7063                                         !
 ! A61   A(29,28,34)           118.1846                                         !
 ! A62   A(28,29,30)           114.8056                                         !
 ! A63   A(28,29,52)           123.618                                          !
 ! A64   A(30,29,52)           121.5753                                         !
 ! A65   A(26,30,29)           123.1192                                         !
 ! A66   A(26,30,44)           115.2839                                         !
 ! A67   A(29,30,44)           121.5967                                         !
 ! A68   A(32,31,33)           119.727                                          !
 ! A69   A(32,31,34)           120.7                                            !
 ! A70   A(33,31,34)           119.5725                                         !
 ! A71   A(31,32,35)           121.9074                                         !
 ! A72   A(31,32,36)           116.0961                                         !
 ! A73   A(35,32,36)           121.9965                                         !
 ! A74   A(28,34,31)           119.2269                                         !
 ! A75   A(27,35,32)           118.3057                                         !
 ! A76   A(32,36,63)           117.0543                                         !
 ! A77   A(38,37,43)           127.2122                                         !
 ! A78   A(38,37,62)           109.8792                                         !
 ! A79   A(43,37,62)           122.8299                                         !
 ! A80   A(37,38,39)           113.825                                          !
 ! A81   A(37,38,40)           122.8999                                         !
 ! A82   A(39,38,40)           123.2736                                         !
 ! A83   A(38,39,41)           112.438                                          !
 ! A84   A(38,39,42)           123.8131                                         !
 ! A85   A(41,39,42)           123.7484                                         !
 ! A86   A(39,41,47)           128.3837                                         !
 ! A87   A(39,41,62)           112.1835                                         !
 ! A88   A(47,41,62)           119.3882                                         !
 ! A89   A(26,43,27)           114.9838                                         !
 ! A90   A(26,43,37)           121.2498                                         !
 ! A91   A(27,43,37)           123.7662                                         !
 ! A92   A(23,48,49)           127.9514                                         !
 ! A93   A(23,48,61)           121.2662                                         !
 ! A94   A(49,48,61)           110.6925                                         !
 ! A95   A(48,49,50)           113.3248                                         !
 ! A96   A(48,49,51)           122.8505                                         !
 ! A97   A(50,49,51)           123.8245                                         !
 ! A98   A(49,50,52)           113.9951                                         !
 ! A99   A(49,50,53)           122.9137                                         !
 ! A100  A(52,50,53)           123.0898                                         !
 ! A101  A(29,52,50)           127.0521                                         !
 ! A102  A(29,52,61)           122.9476                                         !
 ! A103  A(50,52,61)           109.9416                                         !
 ! A104  A(10,54,55)           126.9635                                         !
 ! A105  A(10,54,60)           122.9237                                         !
 ! A106  A(55,54,60)           110.0781                                         !
 ! A107  A(54,55,56)           113.9109                                         !
 ! A108  A(54,55,57)           123.0464                                         !
 ! A109  A(56,55,57)           123.0416                                         !
 ! A110  A(55,56,58)           113.3096                                         !
 ! A111  A(55,56,59)           123.8327                                         !
 ! A112  A(58,56,59)           122.8577                                         !
 ! A113  A(16,58,56)           127.7147                                         !
 ! A114  A(16,58,60)           121.5916                                         !
 ! A115  A(56,58,60)           110.6868                                         !
 ! A116  A(54,60,58)            91.9626                                         !
 ! A117  A(48,61,52)            92.0154                                         !
 ! A118  A(37,62,41)            91.6475                                         !
 ! A119  A(36,63,72)           105.8468                                         !
 ! A120  A(36,63,73)           110.5816                                         !
 ! A121  A(36,63,74)           110.7626                                         !
 ! A122  A(72,63,73)           110.3009                                         !
 ! A123  A(72,63,74)           110.4527                                         !
 ! A124  A(73,63,74)           108.8794                                         !
 ! A125  A(6,65,66)            117.0844                                         !
 ! A126  A(65,66,75)           105.8435                                         !
 ! A127  A(65,66,76)           110.7232                                         !
 ! A128  A(65,66,77)           110.7205                                         !
 ! A129  A(75,66,76)           110.3049                                         !
 ! A130  A(75,66,77)           110.3164                                         !
 ! A131  A(76,66,77)           108.9132                                         !
 ! A132  A(19,67,68)           116.8691                                         !
 ! A133  A(67,68,69)           105.8671                                         !
 ! A134  A(67,68,70)           110.5884                                         !
 ! A135  A(67,68,71)           110.8791                                         !
 ! A136  A(69,68,70)           110.1718                                         !
 ! A137  A(69,68,71)           110.492                                          !
 ! A138  A(70,68,71)           108.8269                                         !
 ! D1    D(10,1,5,4)             0.6751                                         !
 ! D2    D(10,1,5,11)         -179.8119                                         !
 ! D3    D(12,1,5,4)          -178.6391                                         !
 ! D4    D(12,1,5,11)            0.8739                                         !
 ! D5    D(5,1,10,2)            -1.3931                                         !
 ! D6    D(5,1,10,54)          179.1827                                         !
 ! D7    D(12,1,10,2)          177.8807                                         !
 ! D8    D(12,1,10,54)          -1.5435                                         !
 ! D9    D(9,2,3,4)            179.3856                                         !
 ! D10   D(9,2,3,8)             -0.3615                                         !
 ! D11   D(10,2,3,4)            -0.4481                                         !
 ! D12   D(10,2,3,8)           179.8047                                         !
 ! D13   D(3,2,9,7)              0.087                                          !
 ! D14   D(10,2,9,7)           179.9244                                         !
 ! D15   D(3,2,10,1)             1.2793                                         !
 ! D16   D(3,2,10,54)         -179.3124                                         !
 ! D17   D(9,2,10,1)          -178.5554                                         !
 ! D18   D(9,2,10,54)            0.8529                                         !
 ! D19   D(2,3,4,5)             -0.3349                                         !
 ! D20   D(2,3,4,46)          -179.9768                                         !
 ! D21   D(8,3,4,5)            179.4185                                         !
 ! D22   D(8,3,4,46)            -0.2234                                         !
 ! D23   D(2,3,8,6)              0.2878                                         !
 ! D24   D(4,3,8,6)           -179.4628                                         !
 ! D25   D(3,4,5,1)              0.2427                                         !
 ! D26   D(3,4,5,11)          -179.2532                                         !
 ! D27   D(46,4,5,1)           179.882                                          !
 ! D28   D(46,4,5,11)            0.386                                          !
 ! D29   D(8,6,7,9)             -0.3076                                         !
 ! D30   D(8,6,7,64)           179.8215                                         !
 ! D31   D(65,6,7,9)           179.7168                                         !
 ! D32   D(65,6,7,64)           -0.1541                                         !
 ! D33   D(7,6,8,3)              0.0328                                         !
 ! D34   D(65,6,8,3)          -179.9932                                         !
 ! D35   D(7,6,65,66)         -179.9741                                         !
 ! D36   D(8,6,65,66)            0.0503                                         !
 ! D37   D(6,7,9,2)              0.2298                                         !
 ! D38   D(64,7,9,2)          -179.8995                                         !
 ! D39   D(1,10,54,55)         -22.8672                                         !
 ! D40   D(1,10,54,60)         154.7736                                         !
 ! D41   D(2,10,54,55)         157.7523                                         !
 ! D42   D(2,10,54,60)         -24.607                                          !
 ! D43   D(23,13,17,16)         -0.1683                                         !
 ! D44   D(23,13,17,24)        178.3337                                         !
 ! D45   D(25,13,17,16)       -178.7247                                         !
 ! D46   D(25,13,17,24)         -0.2226                                         !
 ! D47   D(17,13,23,14)          0.7806                                         !
 ! D48   D(17,13,23,48)       -179.2724                                         !
 ! D49   D(25,13,23,14)        179.2724                                         !
 ! D50   D(25,13,23,48)         -0.7807                                         !
 ! D51   D(22,14,15,16)       -179.6621                                         !
 ! D52   D(22,14,15,21)         -1.1914                                         !
 ! D53   D(23,14,15,16)         -0.8844                                         !
 ! D54   D(23,14,15,21)        177.5863                                         !
 ! D55   D(15,14,22,19)          0.2774                                         !
 ! D56   D(23,14,22,19)       -178.5273                                         !
 ! D57   D(15,14,23,13)         -0.2494                                         !
 ! D58   D(15,14,23,48)        179.8039                                         !
 ! D59   D(22,14,23,13)        178.5467                                         !
 ! D60   D(22,14,23,48)         -1.4                                            !
 ! D61   D(14,15,16,17)          1.4518                                         !
 ! D62   D(14,15,16,58)       -178.2101                                         !
 ! D63   D(21,15,16,17)       -177.0339                                         !
 ! D64   D(21,15,16,58)          3.3042                                         !
 ! D65   D(14,15,21,18)          1.0814                                         !
 ! D66   D(16,15,21,18)        179.59                                           !
 ! D67   D(15,16,17,13)         -0.9533                                         !
 ! D68   D(15,16,17,24)       -179.3828                                         !
 ! D69   D(58,16,17,13)        178.7094                                         !
 ! D70   D(58,16,17,24)          0.2799                                         !
 ! D71   D(15,16,58,56)         37.1738                                         !
 ! D72   D(15,16,58,60)       -143.8707                                         !
 ! D73   D(17,16,58,56)       -142.4674                                         !
 ! D74   D(17,16,58,60)         36.4881                                         !
 ! D75   D(20,18,19,22)        178.5016                                         !
 ! D76   D(20,18,19,67)         -0.8528                                         !
 ! D77   D(21,18,19,22)         -0.8055                                         !
 ! D78   D(21,18,19,67)        179.8402                                         !
 ! D79   D(19,18,21,15)         -0.1356                                         !
 ! D80   D(20,18,21,15)       -179.4437                                         !
 ! D81   D(18,19,22,14)          0.6914                                         !
 ! D82   D(67,19,22,14)       -179.9885                                         !
 ! D83   D(18,19,67,68)       -179.3794                                         !
 ! D84   D(22,19,67,68)          1.2633                                         !
 ! D85   D(13,23,48,49)        143.535                                          !
 ! D86   D(13,23,48,61)        -40.2455                                         !
 ! D87   D(14,23,48,49)        -36.5214                                         !
 ! D88   D(14,23,48,61)        139.698                                          !
 ! D89   D(43,26,30,29)          1.4673                                         !
 ! D90   D(43,26,30,44)       -178.4231                                         !
 ! D91   D(45,26,30,29)       -178.5639                                         !
 ! D92   D(45,26,30,44)          1.5456                                         !
 ! D93   D(30,26,43,27)         -1.2724                                         !
 ! D94   D(30,26,43,37)        178.9112                                         !
 ! D95   D(45,26,43,27)        178.7606                                         !
 ! D96   D(45,26,43,37)         -1.0558                                         !
 ! D97   D(35,27,28,29)        179.0815                                         !
 ! D98   D(35,27,28,34)         -0.9791                                         !
 ! D99   D(43,27,28,29)         -1.0298                                         !
 ! D100  D(43,27,28,34)        178.9097                                         !
 ! D101  D(28,27,35,32)          0.7453                                         !
 ! D102  D(43,27,35,32)       -179.1465                                         !
 ! D103  D(28,27,43,26)          1.0629                                         !
 ! D104  D(28,27,43,37)       -179.1259                                         !
 ! D105  D(35,27,43,26)       -179.0466                                         !
 ! D106  D(35,27,43,37)          0.7646                                         !
 ! D107  D(27,28,29,30)          1.0524                                         !
 ! D108  D(27,28,29,52)       -179.312                                          !
 ! D109  D(34,28,29,30)       -178.8879                                         !
 ! D110  D(34,28,29,52)          0.7477                                         !
 ! D111  D(27,28,34,31)          0.3263                                         !
 ! D112  D(29,28,34,31)       -179.7319                                         !
 ! D113  D(28,29,30,26)         -1.2445                                         !
 ! D114  D(28,29,30,44)        178.6392                                         !
 ! D115  D(52,29,30,26)        179.1117                                         !
 ! D116  D(52,29,30,44)         -1.0046                                         !
 ! D117  D(28,29,52,50)        159.94                                           !
 ! D118  D(28,29,52,61)        -23.1313                                         !
 ! D119  D(30,29,52,50)        -20.4483                                         !
 ! D120  D(30,29,52,61)        156.4804                                         !
 ! D121  D(33,31,32,35)        179.5196                                         !
 ! D122  D(33,31,32,36)         -0.3818                                         !
 ! D123  D(34,31,32,35)         -0.7423                                         !
 ! D124  D(34,31,32,36)        179.3563                                         !
 ! D125  D(32,31,34,28)          0.4972                                         !
 ! D126  D(33,31,34,28)       -179.7643                                         !
 ! D127  D(31,32,35,27)          0.0816                                         !
 ! D128  D(36,32,35,27)        179.9772                                         !
 ! D129  D(31,32,36,63)       -179.2249                                         !
 ! D130  D(35,32,36,63)          0.8738                                         !
 ! D131  D(32,36,63,72)       -178.3236                                         !
 ! D132  D(32,36,63,73)         62.215                                          !
 ! D133  D(32,36,63,74)        -58.5826                                         !
 ! D134  D(43,37,38,39)        176.3028                                         !
 ! D135  D(43,37,38,40)         -4.1282                                         !
 ! D136  D(62,37,38,39)         -0.5166                                         !
 ! D137  D(62,37,38,40)        179.0524                                         !
 ! D138  D(38,37,43,26)        -24.982                                          !
 ! D139  D(38,37,43,27)        155.2182                                         !
 ! D140  D(62,37,43,26)        151.458                                          !
 ! D141  D(62,37,43,27)        -28.3419                                         !
 ! D142  D(38,37,62,41)          1.1693                                         !
 ! D143  D(43,37,62,41)       -175.8163                                         !
 ! D144  D(37,38,39,41)         -0.6621                                         !
 ! D145  D(37,38,39,42)        179.0929                                         !
 ! D146  D(40,38,39,41)        179.7708                                         !
 ! D147  D(40,38,39,42)         -0.4743                                         !
 ! D148  D(38,39,41,47)        179.0835                                         !
 ! D149  D(38,39,41,62)          1.5599                                         !
 ! D150  D(42,39,41,47)         -0.6716                                         !
 ! D151  D(42,39,41,62)       -178.1952                                         !
 ! D152  D(39,41,62,37)         -1.5746                                         !
 ! D153  D(47,41,62,37)       -179.3469                                         !
 ! D154  D(23,48,49,50)        178.4212                                         !
 ! D155  D(23,48,49,51)         -1.4316                                         !
 ! D156  D(61,48,49,50)          1.875                                          !
 ! D157  D(61,48,49,51)       -177.9777                                         !
 ! D158  D(23,48,61,52)       -178.374                                          !
 ! D159  D(49,48,61,52)         -1.56                                           !
 ! D160  D(48,49,50,52)         -1.268                                          !
 ! D161  D(48,49,50,53)        179.1454                                         !
 ! D162  D(51,49,50,52)        178.5831                                         !
 ! D163  D(51,49,50,53)         -1.0035                                         !
 ! D164  D(49,50,52,29)        177.3066                                         !
 ! D165  D(49,50,52,61)          0.0481                                         !
 ! D166  D(53,50,52,29)         -3.1076                                         !
 ! D167  D(53,50,52,61)        179.6339                                         !
 ! D168  D(29,52,61,48)       -176.5377                                         !
 ! D169  D(50,52,61,48)          0.8552                                         !
 ! D170  D(10,54,55,56)        176.3767                                         !
 ! D171  D(10,54,55,57)         -3.9994                                         !
 ! D172  D(60,54,55,56)         -1.5149                                         !
 ! D173  D(60,54,55,57)        178.109                                          !
 ! D174  D(10,54,60,58)       -175.968                                          !
 ! D175  D(55,54,60,58)          2.025                                          !
 ! D176  D(54,55,56,58)         -0.0421                                         !
 ! D177  D(54,55,56,59)       -179.9999                                         !
 ! D178  D(57,55,56,58)       -179.666                                          !
 ! D179  D(57,55,56,59)          0.3762                                         !
 ! D180  D(55,56,58,16)       -179.3647                                         !
 ! D181  D(55,56,58,60)          1.5863                                         !
 ! D182  D(59,56,58,16)          0.5935                                         !
 ! D183  D(59,56,58,60)       -178.4554                                         !
 ! D184  D(16,58,60,54)        178.8184                                         !
 ! D185  D(56,58,60,54)         -2.0648                                         !
 ! D186  D(6,65,66,75)        -179.915                                          !
 ! D187  D(6,65,66,76)          60.5443                                         !
 ! D188  D(6,65,66,77)         -60.3622                                         !
 ! D189  D(19,67,68,69)       -177.2072                                         !
 ! D190  D(19,67,68,70)         63.4702                                         !
 ! D191  D(19,67,68,71)        -57.3432                                         !
 --------------------------------------------------------------------------------
 NAtoms=     77 NQM=       77 NQMF=       0 NMMI=      0 NMMIF=      0
                NMic=       0 NMicF=      0.
                    Isotopes and Nuclear Properties:
 (Nuclear quadrupole moments (NQMom) in fm**2, nuclear magnetic moments (NMagM)
  in nuclear magnetons)

  Atom         1           2           3           4           5           6           7           8           9          10
 IAtWgt=          12          12          12          12          12          12          12          14          14          12
 AtmWgt=  12.0000000  12.0000000  12.0000000  12.0000000  12.0000000  12.0000000  12.0000000  14.0030740  14.0030740  12.0000000
 NucSpn=           0           0           0           0           0           0           0           2           2           0
 AtZEff=   3.6000000   3.6000000   3.6000000   3.6000000   3.6000000   3.6000000   3.6000000   4.5500000   4.5500000   3.6000000
 NQMom=    0.0000000   0.0000000   0.0000000   0.0000000   0.0000000   0.0000000   0.0000000   2.0440000   2.0440000   0.0000000
 NMagM=    0.0000000   0.0000000   0.0000000   0.0000000   0.0000000   0.0000000   0.0000000   0.4037610   0.4037610   0.0000000
 AtZNuc=   6.0000000   6.0000000   6.0000000   6.0000000   6.0000000   6.0000000   6.0000000   7.0000000   7.0000000   6.0000000

  Atom        11          12          13          14          15          16          17          18          19          20
 IAtWgt=          19          19          12          12          12          12          12          12          12           1
 AtmWgt=  18.9984033  18.9984033  12.0000000  12.0000000  12.0000000  12.0000000  12.0000000  12.0000000  12.0000000   1.0078250
 NucSpn=           1           1           0           0           0           0           0           0           0           1
 AtZEff=   6.7500000   6.7500000   3.6000000   3.6000000   3.6000000   3.6000000   3.6000000   3.6000000   3.6000000   1.0000000
 NQMom=    0.0000000   0.0000000   0.0000000   0.0000000   0.0000000   0.0000000   0.0000000   0.0000000   0.0000000   0.0000000
 NMagM=    2.6288670   2.6288670   0.0000000   0.0000000   0.0000000   0.0000000   0.0000000   0.0000000   0.0000000   2.7928460
 AtZNuc=   9.0000000   9.0000000   6.0000000   6.0000000   6.0000000   6.0000000   6.0000000   6.0000000   6.0000000   1.0000000

  Atom        21          22          23          24          25          26          27          28          29          30
 IAtWgt=          14          14          12          19          19          12          12          12          12          12
 AtmWgt=  14.0030740  14.0030740  12.0000000  18.9984033  18.9984033  12.0000000  12.0000000  12.0000000  12.0000000  12.0000000
 NucSpn=           2           2           0           1           1           0           0           0           0           0
 AtZEff=   4.5500000   4.5500000   3.6000000   6.7500000   6.7500000   3.6000000   3.6000000   3.6000000   3.6000000   3.6000000
 NQMom=    2.0440000   2.0440000   0.0000000   0.0000000   0.0000000   0.0000000   0.0000000   0.0000000   0.0000000   0.0000000
 NMagM=    0.4037610   0.4037610   0.0000000   2.6288670   2.6288670   0.0000000   0.0000000   0.0000000   0.0000000   0.0000000
 AtZNuc=   7.0000000   7.0000000   6.0000000   9.0000000   9.0000000   6.0000000   6.0000000   6.0000000   6.0000000   6.0000000

  Atom        31          32          33          34          35          36          37          38          39          40
 IAtWgt=          12          12           1          14          14          16          12          12          12           1
 AtmWgt=  12.0000000  12.0000000   1.0078250  14.0030740  14.0030740  15.9949146  12.0000000  12.0000000  12.0000000   1.0078250
 NucSpn=           0           0           1           2           2           0           0           0           0           1
 AtZEff=   3.6000000   3.6000000   1.0000000   4.5500000   4.5500000   5.6000000   3.6000000   3.6000000   3.6000000   1.0000000
 NQMom=    0.0000000   0.0000000   0.0000000   2.0440000   2.0440000   0.0000000   0.0000000   0.0000000   0.0000000   0.0000000
 NMagM=    0.0000000   0.0000000   2.7928460   0.4037610   0.4037610   0.0000000   0.0000000   0.0000000   0.0000000   2.7928460
 AtZNuc=   6.0000000   6.0000000   1.0000000   7.0000000   7.0000000   8.0000000   6.0000000   6.0000000   6.0000000   1.0000000

  Atom        41          42          43          44          45          46          47          48          49          50
 IAtWgt=          12           1          12          19          19           1           1          12          12          12
 AtmWgt=  12.0000000   1.0078250  12.0000000  18.9984033  18.9984033   1.0078250   1.0078250  12.0000000  12.0000000  12.0000000
 NucSpn=           0           1           0           1           1           1           1           0           0           0
 AtZEff=   3.6000000   1.0000000   3.6000000   6.7500000   6.7500000   1.0000000   1.0000000   3.6000000   3.6000000   3.6000000
 NQMom=    0.0000000   0.0000000   0.0000000   0.0000000   0.0000000   0.0000000   0.0000000   0.0000000   0.0000000   0.0000000
 NMagM=    0.0000000   2.7928460   0.0000000   2.6288670   2.6288670   2.7928460   2.7928460   0.0000000   0.0000000   0.0000000
 AtZNuc=   6.0000000   1.0000000   6.0000000   9.0000000   9.0000000   1.0000000   1.0000000   6.0000000   6.0000000   6.0000000

  Atom        51          52          53          54          55          56          57          58          59          60
 IAtWgt=           1          12           1          12          12          12           1          12           1          32
 AtmWgt=   1.0078250  12.0000000   1.0078250  12.0000000  12.0000000  12.0000000   1.0078250  12.0000000   1.0078250  31.9720718
 NucSpn=           1           0           1           0           0           0           1           0           1           0
 AtZEff=   1.0000000   3.6000000   1.0000000   3.6000000   3.6000000   3.6000000   1.0000000   3.6000000   1.0000000  13.6000000
 NQMom=    0.0000000   0.0000000   0.0000000   0.0000000   0.0000000   0.0000000   0.0000000   0.0000000   0.0000000   0.0000000
 NMagM=    2.7928460   0.0000000   2.7928460   0.0000000   0.0000000   0.0000000   2.7928460   0.0000000   2.7928460   0.0000000
 AtZNuc=   1.0000000   6.0000000   1.0000000   6.0000000   6.0000000   6.0000000   1.0000000   6.0000000   1.0000000  16.0000000

  Atom        61          62          63          64          65          66          67          68          69          70
 IAtWgt=          32          32          12           1          16          12          16          12           1           1
 AtmWgt=  31.9720718  31.9720718  12.0000000   1.0078250  15.9949146  12.0000000  15.9949146  12.0000000   1.0078250   1.0078250
 NucSpn=           0           0           0           1           0           0           0           0           1           1
 AtZEff=  13.6000000  13.6000000   3.6000000   1.0000000   5.6000000   3.6000000   5.6000000   3.6000000   1.0000000   1.0000000
 NQMom=    0.0000000   0.0000000   0.0000000   0.0000000   0.0000000   0.0000000   0.0000000   0.0000000   0.0000000   0.0000000
 NMagM=    0.0000000   0.0000000   0.0000000   2.7928460   0.0000000   0.0000000   0.0000000   0.0000000   2.7928460   2.7928460
 AtZNuc=  16.0000000  16.0000000   6.0000000   1.0000000   8.0000000   6.0000000   8.0000000   6.0000000   1.0000000   1.0000000

  Atom        71          72          73          74          75          76          77
 IAtWgt=           1           1           1           1           1           1           1
 AtmWgt=   1.0078250   1.0078250   1.0078250   1.0078250   1.0078250   1.0078250   1.0078250
 NucSpn=           1           1           1           1           1           1           1
 AtZEff=   1.0000000   1.0000000   1.0000000   1.0000000   1.0000000   1.0000000   1.0000000
 NQMom=    0.0000000   0.0000000   0.0000000   0.0000000   0.0000000   0.0000000   0.0000000
 NMagM=    2.7928460   2.7928460   2.7928460   2.7928460   2.7928460   2.7928460   2.7928460
 AtZNuc=   1.0000000   1.0000000   1.0000000   1.0000000   1.0000000   1.0000000   1.0000000
 Leave Link  101 at Tue Oct  3 18:33:22 2023, MaxMem= 64424509440 cpu:              15.8 elap:               0.8
 (Enter /temporario/apps/gnu/g16/l202.exe)
 Stoichiometry    C39H20F6N6O3S3
 Framework group  C1[X(C39H20F6N6O3S3)]
 Deg. of freedom   225
 Full point group                 C1      NOp   1
 RotChk:  IX=3 Diff= 4.03D-16
 Largest Abelian subgroup         C1      NOp   1
 Largest concise Abelian subgroup C1      NOp   1
                         Standard orientation:                         
 ---------------------------------------------------------------------
 Center     Atomic      Atomic             Coordinates (Angstroms)
 Number     Number       Type             X           Y           Z
 ---------------------------------------------------------------------
      1          6           0       -9.002164    0.611772    0.450354
      2          6           0       -8.002953   -1.466263   -0.157205
      3          6           0       -9.240029   -2.121291    0.061364
      4          6           0      -10.363232   -1.386385    0.474780
      5          6           0      -10.222663   -0.045520    0.662026
      6          6           0       -8.306624   -4.113242   -0.488952
      7          6           0       -7.052250   -3.466805   -0.706199
      8          7           0       -9.367357   -3.464451   -0.117015
      9          7           0       -6.919982   -2.188212   -0.544731
     10          6           0       -7.867966   -0.053724    0.025751
     11          9           0      -11.249097    0.695178    1.066927
     12          9           0       -8.996796    1.921023    0.697772
     13          6           0       -0.600576    0.589154   -0.959413
     14          6           0       -0.664564    2.719431    0.092210
     15          6           0       -2.080054    2.636080    0.149846
     16          6           0       -2.780314    1.507684   -0.380194
     17          6           0       -1.995248    0.510935   -0.912664
     18          6           0       -2.155991    4.647041    1.232980
     19          6           0       -0.736341    4.730953    1.152120
     20          1           0       -2.714508    5.444169    1.720837
     21          7           0       -2.792828    3.629457    0.746279
     22          7           0       -0.021628    3.796331    0.607641
     23          6           0        0.110903    1.666743   -0.482377
     24          9           0       -2.539597   -0.582554   -1.446206
     25          9           0        0.023946   -0.439717   -1.527379
     26          6           0        7.708029    0.603314   -1.047902
     27          6           0        6.916370   -1.196003    0.270113
     28          6           0        5.617478   -0.629428    0.236616
     29          6           0        5.340231    0.593654   -0.446468
     30          6           0        6.425199    1.159659   -1.083406
     31          6           0        4.823022   -2.365221    1.498011
     32          6           0        6.134479   -2.918380    1.541387
     33          1           0        4.005083   -2.875587    2.002911
     34          7           0        4.593230   -1.257517    0.867911
     35          7           0        7.138743   -2.350232    0.946755
     36          8           0        6.268951   -4.049276    2.223397
     37          6           0        9.365450   -1.122164   -0.416921
     38          6           0       10.339501   -0.901568   -1.362052
     39          6           0       11.577839   -1.505717   -1.056271
     40          1           0       10.166854   -0.323879   -2.259608
     41          6           0       11.551009   -2.174822    0.129529
     42          1           0       12.450935   -1.447616   -1.694872
     43          6           0        8.012261   -0.577046   -0.400623
     44          9           0        6.313245    2.287661   -1.783882
     45          9           0        8.644940    1.294998   -1.691831
     46          1           0      -11.312316   -1.880611    0.644206
     47          1           0       12.345386   -2.736598    0.601699
     48          6           0        1.567623    1.723037   -0.560987
     49          6           0        2.358051    2.818967   -0.798480
     50          6           0        3.730842    2.529691   -0.773828
     51          1           0        1.953762    3.805061   -0.982959
     52          6           0        4.021029    1.212860   -0.489873
     53          1           0        4.491381    3.275615   -0.954625
     54          6           0       -6.619117    0.667584   -0.200934
     55          6           0       -6.475394    2.011260   -0.467638
     56          6           0       -5.140927    2.432834   -0.560522
     57          1           0       -7.315027    2.679104   -0.599754
     58          6           0       -4.236504    1.419383   -0.365652
     59          1           0       -4.844486    3.452599   -0.764270
     60         16           0       -5.055413   -0.093734   -0.105657
     61         16           0        2.543938    0.316563   -0.249749
     62         16           0       10.002798   -2.115695    0.873041
     63          6           0        7.576507   -4.611927    2.294359
     64          1           0       -6.192974   -4.059242   -1.014940
     65          8           0       -8.320856   -5.426392   -0.691561
     66          6           0       -9.558083   -6.101390   -0.483756
     67          8           0       -0.179655    5.817094    1.678721
     68          6           0        1.239053    5.920026    1.592396
     69          1           0        1.503245    6.837031    2.115615
     70          1           0        1.557742    5.976712    0.547523
     71          1           0        1.721528    5.058718    2.062193
     72          1           0        7.472338   -5.535328    2.860740
     73          1           0        8.261509   -3.929297    2.804418
     74          1           0        7.964038   -4.819421    1.293236
     75          1           0       -9.363369   -7.150802   -0.696323
     76          1           0      -10.327667   -5.714435   -1.156855
     77          1           0       -9.896456   -5.979668    0.548582
 ---------------------------------------------------------------------
 Rotational constants (GHZ):           0.0761984           0.0131820           0.0116577
 Leave Link  202 at Tue Oct  3 18:33:23 2023, MaxMem= 64424509440 cpu:               0.2 elap:               0.0
 (Enter /temporario/apps/gnu/g16/l301.exe)
 Standard basis: 6-311G(d,p) (5D, 7F)
 Ernie: Thresh=  0.10000D-02 Tol=  0.10000D-05 Strict=F.
 There are  1227 symmetry adapted cartesian basis functions of A   symmetry.
 There are  1170 symmetry adapted basis functions of A   symmetry.
  1170 basis functions,  2026 primitive gaussians,  1227 cartesian basis functions
   211 alpha electrons      211 beta electrons
       nuclear repulsion energy      7796.8221448919 Hartrees.
 IExCor= 4235 DFT=T Ex+Corr=M06 ExCW=0 ScaHFX=  0.270000
 ScaDFX=  1.000000  1.000000  1.000000  1.000000 ScalE2=  1.000000  1.000000
 IRadAn=      5 IRanWt=     -1 IRanGd=            0 ICorTp=0 IEmpDi=  4
 NAtoms=   77 NActive=   77 NUniq=   77 SFac= 1.00D+00 NAtFMM=   60 NAOKFM=T Big=T
 Integral buffers will be    131072 words long.
 Raffenetti 2 integral format.
 Two-electron integral symmetry is turned on.
 ------------------------------------------------------------------------------
 Polarizable Continuum Model (PCM)
 =================================
 Model                : PCM.
 Atomic radii         : UFF (Universal Force Field).
 Polarization charges : Total charges.
 Charge compensation  : None.
 Solution method      : On-the-fly selection.
 Cavity type          : Scaled VdW (van der Waals Surface) (Alpha=1.100).
 Cavity algorithm     : GePol (No added spheres)
                        Default sphere list used, NSphG=   77.
                        Lebedev-Laikov grids with approx.  5.0 points / Ang**2.
                        Smoothing algorithm: York/Karplus (Gamma=1.0000).
                        Polarization charges: spherical gaussians, with
                                              point-specific exponents (IZeta= 3).
                        Self-potential: point-specific (ISelfS= 7).
                        Self-field    : sphere-specific E.n sum rule (ISelfD= 2).
 Solvent              : n-Octanol, Eps=   9.862900 Eps(inf)=   2.043470
 ------------------------------------------------------------------------------
 GePol: Number of generator spheres                  =      77
 GePol: Total number of spheres                      =      77
 GePol: Number of exposed spheres                    =      77 (100.00%)
 GePol: Number of points                             =    6242
 GePol: Average weight of points                     =       0.13
 GePol: Minimum weight of points                     =   0.20D-10
 GePol: Maximum weight of points                     =    0.20577
 GePol: Number of points with low weight             =     383
 GePol: Fraction of low-weight points (<1% of avg)   =       6.14%
 GePol: Cavity surface area                          =    780.855 Ang**2
 GePol: Cavity volume                                =    917.025 Ang**3
 Leave Link  301 at Tue Oct  3 18:33:23 2023, MaxMem= 64424509440 cpu:               4.5 elap:               0.3
 (Enter /temporario/apps/gnu/g16/l302.exe)
 NPDir=0 NMtPBC=     1 NCelOv=     1 NCel=       1 NClECP=     1 NCelD=      1
         NCelK=      1 NCelE2=     1 NClLst=     1 CellRange=     0.0.
 One-electron integrals computed using PRISM.
 One-electron integral symmetry used in STVInt
 NBasis=  1170 RedAO= T EigKep=  1.12D-04  NBF=  1170
 NBsUse=  1170 1.00D-06 EigRej= -1.00D+00 NBFU=  1170
 Precomputing XC quadrature grid using
 IXCGrd= 4 IRadAn=           5 IRanWt=          -1 IRanGd=           0 AccXCQ= 0.00D+00.
 Generated NRdTot=       0 NPtTot=           0 NUsed=           0 NTot=          32
 NSgBfM=  1012  1012  1012  1012  1012 MxSgAt=    77 MxSgA2=    77.
 Leave Link  302 at Tue Oct  3 18:33:29 2023, MaxMem= 64424509440 cpu:             104.0 elap:               5.3
 (Enter /temporario/apps/gnu/g16/l303.exe)
 DipDrv:  MaxL=1.
 Leave Link  303 at Tue Oct  3 18:33:30 2023, MaxMem= 64424509440 cpu:               6.1 elap:               0.4
 (Enter /temporario/apps/gnu/g16/l401.exe)
 Initial guess from the checkpoint file:  "/temporario/9083010/g16/tmp/Gau-21437.chk"
 B after Tr=    -0.000000   -0.000000    0.000000
         Rot=    1.000000    0.000000   -0.000000    0.000000 Ang=   0.00 deg.
 Guess basis will be translated and rotated to current coordinates.
 JPrj=2 DoOrth=T DoCkMO=T.
 Leave Link  401 at Tue Oct  3 18:33:36 2023, MaxMem= 64424509440 cpu:             123.2 elap:               6.2
 (Enter /temporario/apps/gnu/g16/l502.exe)
 Integral symmetry usage will be decided dynamically.
 Closed shell SCF:
 Using DIIS extrapolation, IDIIS=  1040.
 NGot= 64424509440 LenX= 64421460600 LenY= 64419953844
 Requested convergence on RMS density matrix=1.00D-08 within 128 cycles.
 Requested convergence on MAX density matrix=1.00D-06.
 Requested convergence on             energy=1.00D-06.
 No special actions if energy rises.
 Fock matrices will be formed incrementally for  20 cycles.

 Cycle   1  Pass 1  IDiag  1:
 FoFJK:  IHMeth= 1 ICntrl=       0 DoSepK=F KAlg= 0 I1Cent=           0 FoldK=F
 IRaf= 450000000 NMat=       1 IRICut=       1 DoRegI=T DoRafI=F ISym2E= 0 IDoP0=0 IntGTp=1.
 FoFCou: FMM=T IPFlag=           0 FMFlag=      100000 FMFlg1=        2001
         NFxFlg=           0 DoJE=F BraDBF=F KetDBF=F FulRan=T
         wScrn=  0.000000 ICntrl=         0 IOpCl=  0 I1Cent=           0 NGrid=           0
         NMat0=    1 NMatS0=      1 NMatT0=    0 NMatD0=    1 NMtDS0=    0 NMtDT0=    0
 Symmetry not used in FoFCou.
 FMM levels:  10  Number of levels for PrismC:   9
 Inv3:  Mode=1 IEnd=   116887692.
 Iteration    1 A*A^-1 deviation from unit magnitude is 1.35D-14 for   5664.
 Iteration    1 A*A^-1 deviation from orthogonality  is 7.26D-15 for   4869    909.
 Iteration    1 A^-1*A deviation from unit magnitude is 1.32D-14 for   5664.
 Iteration    1 A^-1*A deviation from orthogonality  is 3.20D-14 for   4851   4841.
 E= -3844.96614550228    
 DIIS: error= 3.28D-08 at cycle   1 NSaved=   1.
 NSaved= 1 IEnMin= 1 EnMin= -3844.96614550228     IErMin= 1 ErrMin= 3.28D-08
 ErrMax= 3.28D-08  0.00D+00 EMaxC= 1.00D-01 BMatC= 2.55D-12 BMatP= 2.55D-12
 IDIUse=1 WtCom= 1.00D+00 WtEn= 0.00D+00
 Coeff-Com:  0.100D+01
 Coeff:      0.100D+01
 Gap=     0.123 Goal=   None    Shift=    0.000
 RMSDP=4.50D-09 MaxDP=3.08D-07              OVMax= 8.06D-07

 Error on total polarization charges =  0.01791
 SCF Done:  E(RM06) =  -3844.96614550     A.U. after    1 cycles
            NFock=  1  Conv=0.45D-08     -V/T= 2.0023
 KE= 3.836157339653D+03 PE=-2.464647310236D+04 EE= 9.168527472310D+03
 Leave Link  502 at Tue Oct  3 18:35:37 2023, MaxMem= 64424509440 cpu:            2161.1 elap:             120.8
 (Enter /temporario/apps/gnu/g16/l601.exe)
 Copying SCF densities to generalized density rwf, IOpCl= 0 IROHF=0.

 **********************************************************************

            Population analysis using the SCF Density.

 **********************************************************************

 Orbital symmetries:
       Occupied  (A) (A) (A) (A) (A) (A) (A) (A) (A) (A) (A) (A)
                 (A) (A) (A) (A) (A) (A) (A) (A) (A) (A) (A) (A)
                 (A) (A) (A) (A) (A) (A) (A) (A) (A) (A) (A) (A)
                 (A) (A) (A) (A) (A) (A) (A) (A) (A) (A) (A) (A)
                 (A) (A) (A) (A) (A) (A) (A) (A) (A) (A) (A) (A)
                 (A) (A) (A) (A) (A) (A) (A) (A) (A) (A) (A) (A)
                 (A) (A) (A) (A) (A) (A) (A) (A) (A) (A) (A) (A)
                 (A) (A) (A) (A) (A) (A) (A) (A) (A) (A) (A) (A)
                 (A) (A) (A) (A) (A) (A) (A) (A) (A) (A) (A) (A)
                 (A) (A) (A) (A) (A) (A) (A) (A) (A) (A) (A) (A)
                 (A) (A) (A) (A) (A) (A) (A) (A) (A) (A) (A) (A)
                 (A) (A) (A) (A) (A) (A) (A) (A) (A) (A) (A) (A)
                 (A) (A) (A) (A) (A) (A) (A) (A) (A) (A) (A) (A)
                 (A) (A) (A) (A) (A) (A) (A) (A) (A) (A) (A) (A)
                 (A) (A) (A) (A) (A) (A) (A) (A) (A) (A) (A) (A)
                 (A) (A) (A) (A) (A) (A) (A) (A) (A) (A) (A) (A)
                 (A) (A) (A) (A) (A) (A) (A) (A) (A) (A) (A) (A)
                 (A) (A) (A) (A) (A) (A) (A)
       Virtual   (A) (A) (A) (A) (A) (A) (A) (A) (A) (A) (A) (A)
                 (A) (A) (A) (A) (A) (A) (A) (A) (A) (A) (A) (A)
                 (A) (A) (A) (A) (A) (A) (A) (A) (A) (A) (A) (A)
                 (A) (A) (A) (A) (A) (A) (A) (A) (A) (A) (A) (A)
                 (A) (A) (A) (A) (A) (A) (A) (A) (A) (A) (A) (A)
                 (A) (A) (A) (A) (A) (A) (A) (A) (A) (A) (A) (A)
                 (A) (A) (A) (A) (A) (A) (A) (A) (A) (A) (A) (A)
                 (A) (A) (A) (A) (A) (A) (A) (A) (A) (A) (A) (A)
                 (A) (A) (A) (A) (A) (A) (A) (A) (A) (A) (A) (A)
                 (A) (A) (A) (A) (A) (A) (A) (A) (A) (A) (A) (A)
                 (A) (A) (A) (A) (A) (A) (A) (A) (A) (A) (A) (A)
                 (A) (A) (A) (A) (A) (A) (A) (A) (A) (A) (A) (A)
                 (A) (A) (A) (A) (A) (A) (A) (A) (A) (A) (A) (A)
                 (A) (A) (A) (A) (A) (A) (A) (A) (A) (A) (A) (A)
                 (A) (A) (A) (A) (A) (A) (A) (A) (A) (A) (A) (A)
                 (A) (A) (A) (A) (A) (A) (A) (A) (A) (A) (A) (A)
                 (A) (A) (A) (A) (A) (A) (A) (A) (A) (A) (A) (A)
                 (A) (A) (A) (A) (A) (A) (A) (A) (A) (A) (A) (A)
                 (A) (A) (A) (A) (A) (A) (A) (A) (A) (A) (A) (A)
                 (A) (A) (A) (A) (A) (A) (A) (A) (A) (A) (A) (A)
                 (A) (A) (A) (A) (A) (A) (A) (A) (A) (A) (A) (A)
                 (A) (A) (A) (A) (A) (A) (A) (A) (A) (A) (A) (A)
                 (A) (A) (A) (A) (A) (A) (A) (A) (A) (A) (A) (A)
                 (A) (A) (A) (A) (A) (A) (A) (A) (A) (A) (A) (A)
                 (A) (A) (A) (A) (A) (A) (A) (A) (A) (A) (A) (A)
                 (A) (A) (A) (A) (A) (A) (A) (A) (A) (A) (A) (A)
                 (A) (A) (A) (A) (A) (A) (A) (A) (A) (A) (A) (A)
                 (A) (A) (A) (A) (A) (A) (A) (A) (A) (A) (A) (A)
                 (A) (A) (A) (A) (A) (A) (A) (A) (A) (A) (A) (A)
                 (A) (A) (A) (A) (A) (A) (A) (A) (A) (A) (A) (A)
                 (A) (A) (A) (A) (A) (A) (A) (A) (A) (A) (A) (A)
                 (A) (A) (A) (A) (A) (A) (A) (A) (A) (A) (A) (A)
                 (A) (A) (A) (A) (A) (A) (A) (A) (A) (A) (A) (A)
                 (A) (A) (A) (A) (A) (A) (A) (A) (A) (A) (A) (A)
                 (A) (A) (A) (A) (A) (A) (A) (A) (A) (A) (A) (A)
                 (A) (A) (A) (A) (A) (A) (A) (A) (A) (A) (A) (A)
                 (A) (A) (A) (A) (A) (A) (A) (A) (A) (A) (A) (A)
                 (A) (A) (A) (A) (A) (A) (A) (A) (A) (A) (A) (A)
                 (A) (A) (A) (A) (A) (A) (A) (A) (A) (A) (A) (A)
                 (A) (A) (A) (A) (A) (A) (A) (A) (A) (A) (A) (A)
                 (A) (A) (A) (A) (A) (A) (A) (A) (A) (A) (A) (A)
                 (A) (A) (A) (A) (A) (A) (A) (A) (A) (A) (A) (A)
                 (A) (A) (A) (A) (A) (A) (A) (A) (A) (A) (A) (A)
                 (A) (A) (A) (A) (A) (A) (A) (A) (A) (A) (A) (A)
                 (A) (A) (A) (A) (A) (A) (A) (A) (A) (A) (A) (A)
                 (A) (A) (A) (A) (A) (A) (A) (A) (A) (A) (A) (A)
                 (A) (A) (A) (A) (A) (A) (A) (A) (A) (A) (A) (A)
                 (A) (A) (A) (A) (A) (A) (A) (A) (A) (A) (A) (A)
                 (A) (A) (A) (A) (A) (A) (A) (A) (A) (A) (A) (A)
                 (A) (A) (A) (A) (A) (A) (A) (A) (A) (A) (A) (A)
                 (A) (A) (A) (A) (A) (A) (A) (A) (A) (A) (A) (A)
                 (A) (A) (A) (A) (A) (A) (A) (A) (A) (A) (A) (A)
                 (A) (A) (A) (A) (A) (A) (A) (A) (A) (A) (A) (A)
                 (A) (A) (A) (A) (A) (A) (A) (A) (A) (A) (A) (A)
                 (A) (A) (A) (A) (A) (A) (A) (A) (A) (A) (A) (A)
                 (A) (A) (A) (A) (A) (A) (A) (A) (A) (A) (A) (A)
                 (A) (A) (A) (A) (A) (A) (A) (A) (A) (A) (A) (A)
                 (A) (A) (A) (A) (A) (A) (A) (A) (A) (A) (A) (A)
                 (A) (A) (A) (A) (A) (A) (A) (A) (A) (A) (A) (A)
                 (A) (A) (A) (A) (A) (A) (A) (A) (A) (A) (A) (A)
                 (A) (A) (A) (A) (A) (A) (A) (A) (A) (A) (A) (A)
                 (A) (A) (A) (A) (A) (A) (A) (A) (A) (A) (A) (A)
                 (A) (A) (A) (A) (A) (A) (A) (A) (A) (A) (A) (A)
                 (A) (A) (A) (A) (A) (A) (A) (A) (A) (A) (A) (A)
                 (A) (A) (A) (A) (A) (A) (A) (A) (A) (A) (A) (A)
                 (A) (A) (A) (A) (A) (A) (A) (A) (A) (A) (A) (A)
                 (A) (A) (A) (A) (A) (A) (A) (A) (A) (A) (A) (A)
                 (A) (A) (A) (A) (A) (A) (A) (A) (A) (A) (A) (A)
                 (A) (A) (A) (A) (A) (A) (A) (A) (A) (A) (A) (A)
                 (A) (A) (A) (A) (A) (A) (A) (A) (A) (A) (A) (A)
                 (A) (A) (A) (A) (A) (A) (A) (A) (A) (A) (A) (A)
                 (A) (A) (A) (A) (A) (A) (A) (A) (A) (A) (A) (A)
                 (A) (A) (A) (A) (A) (A) (A) (A) (A) (A) (A) (A)
                 (A) (A) (A) (A) (A) (A) (A) (A) (A) (A) (A) (A)
                 (A) (A) (A) (A) (A) (A) (A) (A) (A) (A) (A) (A)
                 (A) (A) (A) (A) (A) (A) (A) (A) (A) (A) (A) (A)
                 (A) (A) (A) (A) (A) (A) (A) (A) (A) (A) (A) (A)
                 (A) (A) (A) (A) (A) (A) (A) (A) (A) (A) (A) (A)
                 (A) (A) (A) (A) (A) (A) (A) (A) (A) (A) (A) (A)
                 (A) (A) (A) (A) (A) (A) (A) (A) (A) (A) (A)
 The electronic state is 1-A.
 Alpha  occ. eigenvalues --  -89.06564 -89.06485 -89.06308 -24.81188 -24.81057
 Alpha  occ. eigenvalues --  -24.80954 -24.80953 -24.80908 -24.80726 -19.26445
 Alpha  occ. eigenvalues --  -19.26294 -19.26276 -14.41827 -14.41719 -14.41418
 Alpha  occ. eigenvalues --  -14.40639 -14.40390 -14.40243 -10.35613 -10.35390
 Alpha  occ. eigenvalues --  -10.35325 -10.35299 -10.35256 -10.35148 -10.34963
 Alpha  occ. eigenvalues --  -10.34912 -10.34909 -10.30884 -10.30832 -10.30493
 Alpha  occ. eigenvalues --  -10.30088 -10.30041 -10.29900 -10.29882 -10.29780
 Alpha  occ. eigenvalues --  -10.29615 -10.29327 -10.29289 -10.29270 -10.28816
 Alpha  occ. eigenvalues --  -10.28607 -10.28521 -10.28427 -10.28393 -10.28274
 Alpha  occ. eigenvalues --  -10.28165 -10.28025 -10.27975 -10.27935 -10.26317
 Alpha  occ. eigenvalues --  -10.25985 -10.24636 -10.24598 -10.24469 -10.24443
 Alpha  occ. eigenvalues --  -10.24404 -10.24140  -8.08646  -8.08560  -8.08407
 Alpha  occ. eigenvalues --   -6.00290  -6.00205  -6.00035  -5.99880  -5.99795
 Alpha  occ. eigenvalues --   -5.99636  -5.99482  -5.99396  -5.99266  -1.30687
 Alpha  occ. eigenvalues --   -1.30671  -1.30410  -1.29056  -1.28985  -1.28881
 Alpha  occ. eigenvalues --   -1.13506  -1.13334  -1.13299  -1.01874  -1.01581
 Alpha  occ. eigenvalues --   -1.01527  -0.95064  -0.94754  -0.94687  -0.92052
 Alpha  occ. eigenvalues --   -0.91672  -0.90954  -0.90167  -0.89429  -0.88863
 Alpha  occ. eigenvalues --   -0.83522  -0.82258  -0.80809  -0.80371  -0.80208
 Alpha  occ. eigenvalues --   -0.80154  -0.77082  -0.76146  -0.75937  -0.75595
 Alpha  occ. eigenvalues --   -0.75346  -0.75160  -0.74856  -0.74295  -0.72552
 Alpha  occ. eigenvalues --   -0.70389  -0.69876  -0.69618  -0.68531  -0.67718
 Alpha  occ. eigenvalues --   -0.67234  -0.66595  -0.65906  -0.64974  -0.62242
 Alpha  occ. eigenvalues --   -0.62101  -0.61290  -0.61168  -0.60956  -0.60447
 Alpha  occ. eigenvalues --   -0.59793  -0.59232  -0.58913  -0.57788  -0.57299
 Alpha  occ. eigenvalues --   -0.57018  -0.56574  -0.56270  -0.56002  -0.55840
 Alpha  occ. eigenvalues --   -0.55760  -0.55358  -0.54266  -0.53762  -0.53589
 Alpha  occ. eigenvalues --   -0.53507  -0.53344  -0.53103  -0.53042  -0.52484
 Alpha  occ. eigenvalues --   -0.52281  -0.51277  -0.51146  -0.51109  -0.51098
 Alpha  occ. eigenvalues --   -0.50722  -0.49873  -0.49778  -0.49758  -0.49601
 Alpha  occ. eigenvalues --   -0.47780  -0.47463  -0.47291  -0.46341  -0.46262
 Alpha  occ. eigenvalues --   -0.46121  -0.46045  -0.45996  -0.45934  -0.45507
 Alpha  occ. eigenvalues --   -0.45241  -0.45068  -0.44337  -0.44002  -0.43666
 Alpha  occ. eigenvalues --   -0.43432  -0.43265  -0.42718  -0.42093  -0.41676
 Alpha  occ. eigenvalues --   -0.41536  -0.41512  -0.41043  -0.40584  -0.40234
 Alpha  occ. eigenvalues --   -0.40083  -0.39986  -0.39356  -0.39163  -0.38847
 Alpha  occ. eigenvalues --   -0.38545  -0.38114  -0.38004  -0.37989  -0.37822
 Alpha  occ. eigenvalues --   -0.37552  -0.37443  -0.36587  -0.36264  -0.35707
 Alpha  occ. eigenvalues --   -0.34714  -0.34348  -0.33956  -0.33798  -0.33375
 Alpha  occ. eigenvalues --   -0.33156  -0.31276  -0.30132  -0.28949  -0.28867
 Alpha  occ. eigenvalues --   -0.28520  -0.28259  -0.26962  -0.26833  -0.26713
 Alpha  occ. eigenvalues --   -0.26483  -0.26427  -0.26339  -0.25572  -0.23398
 Alpha  occ. eigenvalues --   -0.21749
 Alpha virt. eigenvalues --   -0.09447  -0.08440  -0.07456  -0.04796  -0.04177
 Alpha virt. eigenvalues --   -0.03124  -0.02792  -0.02663  -0.02283  -0.00434
 Alpha virt. eigenvalues --    0.01331   0.02814   0.03292   0.03361   0.03868
 Alpha virt. eigenvalues --    0.04599   0.05100   0.05236   0.05418   0.05732
 Alpha virt. eigenvalues --    0.05792   0.06247   0.06510   0.06749   0.06767
 Alpha virt. eigenvalues --    0.07175   0.07187   0.07708   0.08145   0.08184
 Alpha virt. eigenvalues --    0.08413   0.08485   0.09018   0.09126   0.09244
 Alpha virt. eigenvalues --    0.09671   0.09933   0.10284   0.10380   0.10732
 Alpha virt. eigenvalues --    0.11126   0.11208   0.11254   0.11597   0.11877
 Alpha virt. eigenvalues --    0.12080   0.12584   0.12793   0.13821   0.14893
 Alpha virt. eigenvalues --    0.15171   0.15667   0.17352   0.17586   0.17730
 Alpha virt. eigenvalues --    0.18106   0.18828   0.19111   0.19319   0.19611
 Alpha virt. eigenvalues --    0.19940   0.20154   0.20324   0.20858   0.21000
 Alpha virt. eigenvalues --    0.22030   0.22083   0.23093   0.23211   0.23469
 Alpha virt. eigenvalues --    0.23803   0.24191   0.24819   0.25099   0.25497
 Alpha virt. eigenvalues --    0.25823   0.26077   0.26767   0.27008   0.27296
 Alpha virt. eigenvalues --    0.28198   0.28763   0.28919   0.29115   0.29611
 Alpha virt. eigenvalues --    0.29773   0.30032   0.30378   0.30438   0.30510
 Alpha virt. eigenvalues --    0.30795   0.30966   0.31140   0.31926   0.32063
 Alpha virt. eigenvalues --    0.32590   0.32734   0.32965   0.33112   0.33267
 Alpha virt. eigenvalues --    0.33457   0.33684   0.33890   0.34032   0.34215
 Alpha virt. eigenvalues --    0.34684   0.34842   0.35040   0.35155   0.35292
 Alpha virt. eigenvalues --    0.35607   0.35784   0.36280   0.36755   0.37416
 Alpha virt. eigenvalues --    0.37656   0.37741   0.37880   0.38009   0.38137
 Alpha virt. eigenvalues --    0.38508   0.38826   0.39046   0.39113   0.39235
 Alpha virt. eigenvalues --    0.39303   0.39678   0.39965   0.40268   0.40408
 Alpha virt. eigenvalues --    0.40573   0.41102   0.41131   0.41303   0.41536
 Alpha virt. eigenvalues --    0.41774   0.41950   0.42229   0.42470   0.42814
 Alpha virt. eigenvalues --    0.43064   0.43438   0.43624   0.43868   0.44129
 Alpha virt. eigenvalues --    0.44613   0.44778   0.44867   0.45053   0.45126
 Alpha virt. eigenvalues --    0.45610   0.45767   0.45962   0.46170   0.46737
 Alpha virt. eigenvalues --    0.46775   0.46865   0.47179   0.47489   0.47755
 Alpha virt. eigenvalues --    0.48368   0.48442   0.48628   0.48696   0.48860
 Alpha virt. eigenvalues --    0.49245   0.49566   0.49642   0.50147   0.50243
 Alpha virt. eigenvalues --    0.50799   0.51163   0.51456   0.51611   0.52301
 Alpha virt. eigenvalues --    0.52567   0.52882   0.52922   0.53476   0.53498
 Alpha virt. eigenvalues --    0.53574   0.53622   0.53841   0.54412   0.54578
 Alpha virt. eigenvalues --    0.55040   0.55102   0.55467   0.55770   0.56087
 Alpha virt. eigenvalues --    0.56185   0.56358   0.56541   0.56979   0.57186
 Alpha virt. eigenvalues --    0.57458   0.57803   0.57934   0.58135   0.58393
 Alpha virt. eigenvalues --    0.58762   0.58951   0.59143   0.59641   0.59714
 Alpha virt. eigenvalues --    0.60268   0.60638   0.61337   0.61562   0.61911
 Alpha virt. eigenvalues --    0.62483   0.62917   0.63455   0.63813   0.64147
 Alpha virt. eigenvalues --    0.64688   0.64717   0.65385   0.65599   0.66410
 Alpha virt. eigenvalues --    0.67037   0.67098   0.67249   0.67539   0.67919
 Alpha virt. eigenvalues --    0.68085   0.68404   0.68806   0.69270   0.69332
 Alpha virt. eigenvalues --    0.69524   0.70377   0.70732   0.71140   0.71304
 Alpha virt. eigenvalues --    0.71433   0.71613   0.71945   0.72374   0.72456
 Alpha virt. eigenvalues --    0.72942   0.73065   0.73337   0.73424   0.73560
 Alpha virt. eigenvalues --    0.74020   0.74127   0.74342   0.74607   0.74785
 Alpha virt. eigenvalues --    0.75452   0.75827   0.76289   0.76671   0.77091
 Alpha virt. eigenvalues --    0.77262   0.77373   0.77661   0.78319   0.78929
 Alpha virt. eigenvalues --    0.79335   0.79773   0.79829   0.80621   0.80936
 Alpha virt. eigenvalues --    0.81169   0.81433   0.82139   0.82396   0.82608
 Alpha virt. eigenvalues --    0.82742   0.83083   0.83318   0.83540   0.83927
 Alpha virt. eigenvalues --    0.84630   0.84900   0.85168   0.85783   0.86153
 Alpha virt. eigenvalues --    0.86401   0.86713   0.86910   0.87223   0.87468
 Alpha virt. eigenvalues --    0.88067   0.88564   0.88670   0.89225   0.89614
 Alpha virt. eigenvalues --    0.89904   0.91162   0.91465   0.91834   0.92100
 Alpha virt. eigenvalues --    0.92283   0.92527   0.92645   0.93556   0.94162
 Alpha virt. eigenvalues --    0.94839   0.95387   0.95984   0.96245   0.96352
 Alpha virt. eigenvalues --    0.96587   0.96829   0.97404   0.97829   0.98163
 Alpha virt. eigenvalues --    0.98462   0.98868   0.99457   0.99900   1.00765
 Alpha virt. eigenvalues --    1.00968   1.01218   1.01541   1.02146   1.02771
[...]
    24  F   -0.225038
    25  F   -0.220824
    26  C    0.250673
    27  C    0.186649
    28  C    0.132338
    29  C   -0.045434
    30  C    0.235742
    31  C    0.084426
    32  C    0.340384
    33  H    0.155785
    34  N   -0.385957
    35  N   -0.437949
    36  O   -0.371469
    37  C   -0.268853
    38  C   -0.045391
    39  C   -0.121202
    40  H    0.141888
    41  C   -0.336128
    42  H    0.135291
    43  C   -0.033715
    44  F   -0.228710
    45  F   -0.224589
    46  H    0.158099
    47  H    0.166713
    48  C   -0.269762
    49  C   -0.028230
    50  C   -0.063826
    51  H    0.142451
    52  C   -0.249687
    53  H    0.143641
    54  C   -0.247752
    55  C   -0.060829
    56  C   -0.027823
    57  H    0.145191
    58  C   -0.258905
    59  H    0.139707
    60  S    0.399288
    61  S    0.393506
    62  S    0.359628
    63  C   -0.146274
    64  H    0.155391
    65  O   -0.373006
    66  C   -0.137833
    67  O   -0.373606
    68  C   -0.143638
    69  H    0.148159
    70  H    0.137360
    71  H    0.135150
    72  H    0.148860
    73  H    0.140718
    74  H    0.139826
    75  H    0.146793
    76  H    0.134001
    77  H    0.133831
 Sum of Mulliken charges =  -0.00000
 Mulliken charges with hydrogens summed into heavy atoms:
               1
     1  C    0.206983
     2  C    0.107803
     3  C    0.152410
     4  C    0.082401
     5  C    0.244111
     6  C    0.339832
     7  C    0.237439
     8  N   -0.415943
     9  N   -0.376525
    10  C   -0.055277
    11  F   -0.229133
    12  F   -0.227701
    13  C    0.227474
    14  C    0.195773
    15  C    0.125567
    16  C   -0.056215
    17  C    0.218306
    18  C    0.228912
    19  C    0.339065
    21  N   -0.357968
    22  N   -0.420449
    23  C   -0.058434
    24  F   -0.225038
    25  F   -0.220824
    26  C    0.250673
    27  C    0.186649
    28  C    0.132338
    29  C   -0.045434
    30  C    0.235742
    31  C    0.240210
    32  C    0.340384
    34  N   -0.385957
    35  N   -0.437949
    36  O   -0.371469
    37  C   -0.268853
    38  C    0.096498
    39  C    0.014088
    41  C   -0.169415
    43  C   -0.033715
    44  F   -0.228710
    45  F   -0.224589
    48  C   -0.269762
    49  C    0.114221
    50  C    0.079815
    52  C   -0.249687
    54  C   -0.247752
    55  C    0.084362
    56  C    0.111885
    58  C   -0.258905
    60  S    0.399288
    61  S    0.393506
    62  S    0.359628
    63  C    0.283130
    65  O   -0.373006
    66  C    0.276793
    67  O   -0.373606
    68  C    0.277031
 Electronic spatial extent (au):  <R**2>=          81824.3568
 Charge=             -0.0000 electrons
 Dipole moment (field-independent basis, Debye):
    X=              2.4143    Y=             -3.3460    Z=              2.4557  Tot=              4.8016
 Quadrupole moment (field-independent basis, Debye-Ang):
   XX=           -291.5339   YY=           -280.1732   ZZ=           -337.1031
   XY=             12.4970   XZ=             19.8878   YZ=             -5.6219
 Traceless Quadrupole moment (field-independent basis, Debye-Ang):
   XX=             11.4029   YY=             22.7635   ZZ=            -34.1664
   XY=             12.4970   XZ=             19.8878   YZ=             -5.6219
 Octapole moment (field-independent basis, Debye-Ang**2):
  XXX=            208.8909  YYY=            -60.5169  ZZZ=              9.2119  XYY=            -89.1984
  XXY=           -680.1991  XXZ=             17.3457  XZZ=             28.8413  YZZ=            -16.4131
  YYZ=             51.3754  XYZ=            -43.5102
 Hexadecapole moment (field-independent basis, Debye-Ang**3):
 XXXX=         -83228.8317 YYYY=         -12534.5015 ZZZZ=          -2165.8853 XXXY=           1157.9660
 XXXZ=           1072.6945 YYYX=           1209.1186 YYYZ=             27.2425 ZZZX=           -101.2291
 ZZZY=             -8.1767 XXYY=         -14499.6891 XXZZ=         -15306.4287 YYZZ=          -2695.2960
 XXYZ=           -570.2118 YYXZ=            537.8523 ZZXY=           -102.2087
 N-N= 7.796822144892D+03 E-N=-2.464647307000D+04  KE= 3.836157339653D+03
 No NMR shielding tensors so no spin-rotation constants.
 Leave Link  601 at Tue Oct  3 18:35:39 2023, MaxMem= 64424509440 cpu:              28.6 elap:               1.7
 (Enter /temporario/apps/gnu/g16/l602.exe)
 FitSet:  NAtFit=    77 NAtPot=    77 NAtFrz=     0 MDM=    81 TotChg=   0.00000
 Breneman (CHELPG) radii used.
 Generate Potential Derived Charges using the Breneman model, NDens= 1.
 Grid spacing= 0.300 Box extension= 2.800
 NStep X,Y,Z=   99     67     36   Total possible points=      238788
 Number of Points to Fit=   42475

 **********************************************************************

            Electrostatic Properties Using The SCF Density.

 **********************************************************************

       Atomic Center    1 is at  -9.002164  0.611772  0.450354
       Atomic Center    2 is at  -8.002953 -1.466263 -0.157205
       Atomic Center    3 is at  -9.240029 -2.121291  0.061364
       Atomic Center    4 is at -10.363232 -1.386385  0.474780
       Atomic Center    5 is at -10.222663 -0.045520  0.662026
       Atomic Center    6 is at  -8.306624 -4.113242 -0.488952
       Atomic Center    7 is at  -7.052250 -3.466805 -0.706199
       Atomic Center    8 is at  -9.367357 -3.464451 -0.117015
       Atomic Center    9 is at  -6.919982 -2.188212 -0.544731
       Atomic Center   10 is at  -7.867966 -0.053724  0.025751
       Atomic Center   11 is at -11.249097  0.695178  1.066927
       Atomic Center   12 is at  -8.996796  1.921023  0.697772
       Atomic Center   13 is at  -0.600576  0.589154 -0.959413
       Atomic Center   14 is at  -0.664564  2.719431  0.092210
       Atomic Center   15 is at  -2.080054  2.636080  0.149846
       Atomic Center   16 is at  -2.780314  1.507684 -0.380194
       Atomic Center   17 is at  -1.995248  0.510935 -0.912664
       Atomic Center   18 is at  -2.155991  4.647041  1.232980
       Atomic Center   19 is at  -0.736341  4.730953  1.152120
       Atomic Center   20 is at  -2.714508  5.444169  1.720837
       Atomic Center   21 is at  -2.792828  3.629457  0.746279
       Atomic Center   22 is at  -0.021628  3.796331  0.607641
       Atomic Center   23 is at   0.110903  1.666743 -0.482377
       Atomic Center   24 is at  -2.539597 -0.582554 -1.446206
       Atomic Center   25 is at   0.023946 -0.439717 -1.527379
       Atomic Center   26 is at   7.708029  0.603314 -1.047902
       Atomic Center   27 is at   6.916370 -1.196003  0.270113
       Atomic Center   28 is at   5.617478 -0.629428  0.236616
       Atomic Center   29 is at   5.340231  0.593654 -0.446468
       Atomic Center   30 is at   6.425199  1.159659 -1.083406
       Atomic Center   31 is at   4.823022 -2.365221  1.498011
       Atomic Center   32 is at   6.134479 -2.918380  1.541387
       Atomic Center   33 is at   4.005083 -2.875587  2.002911
       Atomic Center   34 is at   4.593230 -1.257517  0.867911
       Atomic Center   35 is at   7.138743 -2.350232  0.946755
       Atomic Center   36 is at   6.268951 -4.049276  2.223397
       Atomic Center   37 is at   9.365450 -1.122164 -0.416921
       Atomic Center   38 is at  10.339501 -0.901568 -1.362052
       Atomic Center   39 is at  11.577839 -1.505717 -1.056271
       Atomic Center   40 is at  10.166854 -0.323879 -2.259608
       Atomic Center   41 is at  11.551009 -2.174822  0.129529
       Atomic Center   42 is at  12.450935 -1.447616 -1.694872
       Atomic Center   43 is at   8.012261 -0.577046 -0.400623
       Atomic Center   44 is at   6.313245  2.287661 -1.783882
       Atomic Center   45 is at   8.644940  1.294998 -1.691831
       Atomic Center   46 is at -11.312316 -1.880611  0.644206
       Atomic Center   47 is at  12.345386 -2.736598  0.601699
       Atomic Center   48 is at   1.567623  1.723037 -0.560987
       Atomic Center   49 is at   2.358051  2.818967 -0.798480
       Atomic Center   50 is at   3.730842  2.529691 -0.773828
       Atomic Center   51 is at   1.953762  3.805061 -0.982959
       Atomic Center   52 is at   4.021029  1.212860 -0.489873
       Atomic Center   53 is at   4.491381  3.275615 -0.954625
       Atomic Center   54 is at  -6.619117  0.667584 -0.200934
       Atomic Center   55 is at  -6.475394  2.011260 -0.467638
       Atomic Center   56 is at  -5.140927  2.432834 -0.560522
       Atomic Center   57 is at  -7.315027  2.679104 -0.599754
       Atomic Center   58 is at  -4.236504  1.419383 -0.365652
       Atomic Center   59 is at  -4.844486  3.452599 -0.764270
       Atomic Center   60 is at  -5.055413 -0.093734 -0.105657
       Atomic Center   61 is at   2.543938  0.316563 -0.249749
       Atomic Center   62 is at  10.002798 -2.115695  0.873041
       Atomic Center   63 is at   7.576507 -4.611927  2.294359
       Atomic Center   64 is at  -6.192974 -4.059242 -1.014940
       Atomic Center   65 is at  -8.320856 -5.426392 -0.691561
       Atomic Center   66 is at  -9.558083 -6.101390 -0.483756
       Atomic Center   67 is at  -0.179655  5.817094  1.678721
       Atomic Center   68 is at   1.239053  5.920026  1.592396
       Atomic Center   69 is at   1.503245  6.837031  2.115615
       Atomic Center   70 is at   1.557742  5.976712  0.547523
       Atomic Center   71 is at   1.721528  5.058718  2.062193
       Atomic Center   72 is at   7.472338 -5.535328  2.860740
       Atomic Center   73 is at   8.261509 -3.929297  2.804418
       Atomic Center   74 is at   7.964038 -4.819421  1.293236
       Atomic Center   75 is at  -9.363369 -7.150802 -0.696323
       Atomic Center   76 is at -10.327667 -5.714435 -1.156855
       Atomic Center   77 is at  -9.896456 -5.979668  0.548582
   42475 points will be used for fitting atomic charges
 Fitting point charges to electrostatic potential
 Charges from ESP fit, RMS=   0.00448 RRMS=   0.31923:
 ESP charges:
               1
     1  C    0.063335
     2  C    0.057201
     3  C    0.340869
     4  C   -0.391370
     5  C    0.310079
     6  C    0.738724
     7  C   -0.080434
     8  N   -0.572114
     9  N   -0.243393
    10  C    0.015814
    11  F   -0.180188
    12  F   -0.137998
    13  C    0.166020
    14  C    0.062889
    15  C    0.267222
    16  C   -0.179860
    17  C    0.228152
    18  C    0.080188
    19  C    0.573796
    20  H    0.073503
    21  N   -0.407068
    22  N   -0.366708
    23  C   -0.084259
    24  F   -0.174722
    25  F   -0.150760
    26  C    0.175576
    27  C    0.110229
    28  C    0.172349
    29  C   -0.089722
    30  C    0.152491
    31  C   -0.011546
    32  C    0.609746
    33  H    0.098845
    34  N   -0.280765
    35  N   -0.378043
    36  O   -0.466868
    37  C    0.038048
    38  C   -0.146310
    39  C   -0.104855
    40  H    0.137585
    41  C   -0.222029
    42  H    0.114036
    43  C   -0.089312
    44  F   -0.155131
    45  F   -0.157236
    46  H    0.202091
    47  H    0.188172
    48  C    0.101473
    49  C   -0.251779
    50  C   -0.109394
    51  H    0.161550
    52  C    0.029953
    53  H    0.137420
    54  C   -0.012532
    55  C   -0.111546
    56  C   -0.250536
    57  H    0.138185
    58  C    0.138365
    59  H    0.162585
    60  S   -0.030920
    61  S   -0.043870
    62  S    0.027062
    63  C    0.235960
    64  H    0.105863
    65  O   -0.467019
    66  C    0.146189
    67  O   -0.460711
    68  C    0.220215
    69  H    0.054522
    70  H    0.015123
    71  H   -0.016259
    72  H    0.048913
    73  H    0.011742
    74  H   -0.010532
    75  H    0.076188
    76  H    0.020900
    77  H    0.026621
 Sum of ESP charges =  -0.00000
 ESP charges with hydrogens summed into heavy atoms:
               1
     1  C    0.063335
     2  C    0.057201
     3  C    0.340869
     4  C   -0.189279
     5  C    0.310079
     6  C    0.738724
     7  C    0.025429
     8  N   -0.572114
     9  N   -0.243393
    10  C    0.015814
    11  F   -0.180188
    12  F   -0.137998
    13  C    0.166020
    14  C    0.062889
    15  C    0.267222
    16  C   -0.179860
    17  C    0.228152
    18  C    0.153691
    19  C    0.573796
    21  N   -0.407068
    22  N   -0.366708
    23  C   -0.084259
    24  F   -0.174722
    25  F   -0.150760
    26  C    0.175576
    27  C    0.110229
    28  C    0.172349
    29  C   -0.089722
    30  C    0.152491
    31  C    0.087298
    32  C    0.609746
    34  N   -0.280765
    35  N   -0.378043
    36  O   -0.466868
    37  C    0.038048
    38  C   -0.008726
    39  C    0.009181
    41  C   -0.033857
    43  C   -0.089312
    44  F   -0.155131
    45  F   -0.157236
    48  C    0.101473
    49  C   -0.090228
    50  C    0.028026
    52  C    0.029953
    54  C   -0.012532
    55  C    0.026639
    56  C   -0.087951
    58  C    0.138365
    60  S   -0.030920
    61  S   -0.043870
    62  S    0.027062
    63  C    0.286083
    65  O   -0.467019
    66  C    0.269897
    67  O   -0.460711
    68  C    0.273602
 Charge=  -0.00000 Dipole=     2.6220    -3.1813     2.2675 Tot=     4.7050
 -----------------------------------------------------------------

              Electrostatic Properties (Atomic Units)

 -----------------------------------------------------------------
    Center     Electric         -------- Electric Field --------
               Potential          X             Y             Z
 -----------------------------------------------------------------
    1 Atom    -14.668016
    2 Atom    -14.717072
    3 Atom    -14.708368
    4 Atom    -14.754623
    5 Atom    -14.663675
    6 Atom    -14.654938
    7 Atom    -14.716281
    8 Atom    -18.393330
    9 Atom    -18.388990
   10 Atom    -14.732322
   11 Atom    -26.588554
   12 Atom    -26.589383
   13 Atom    -14.668733
   14 Atom    -14.707093
   15 Atom    -14.716564
   16 Atom    -14.737535
   17 Atom    -14.672823
   18 Atom    -14.716809
   19 Atom    -14.655268
   20 Atom     -1.085154
   21 Atom    -18.391440
   22 Atom    -18.395052
   23 Atom    -14.738593
   24 Atom    -26.595452
   25 Atom    -26.592144
   26 Atom    -14.663027
   27 Atom    -14.703389
   28 Atom    -14.713488
   29 Atom    -14.732495
   30 Atom    -14.666327
   31 Atom    -14.712557
   32 Atom    -14.650298
   33 Atom     -1.081223
   34 Atom    -18.385032
   35 Atom    -18.388132
   36 Atom    -22.315628
   37 Atom    -14.737445
   38 Atom    -14.773780
   39 Atom    -14.772896
   40 Atom     -1.103551
   41 Atom    -14.749246
   42 Atom     -1.097165
   43 Atom    -14.732610
   44 Atom    -26.586529
   45 Atom    -26.585092
   46 Atom     -1.075750
   47 Atom     -1.074976
   48 Atom    -14.744714
   49 Atom    -14.777162
   50 Atom    -14.775802
   51 Atom     -1.102641
   52 Atom    -14.739103
   53 Atom     -1.103093
   54 Atom    -14.742062
   55 Atom    -14.780401
   56 Atom    -14.782771
   57 Atom     -1.107661
   58 Atom    -14.747637
   59 Atom     -1.110723
   60 Atom    -59.232221
   61 Atom    -59.230365
   62 Atom    -59.217017
   63 Atom    -14.701586
   64 Atom     -1.086019
   65 Atom    -22.319217
   66 Atom    -14.703773
   67 Atom    -22.319297
   68 Atom    -14.704111
   69 Atom     -1.092844
   70 Atom     -1.094762
   71 Atom     -1.100084
   72 Atom     -1.090069
   73 Atom     -1.093663
   74 Atom     -1.095887
   75 Atom     -1.092040
   76 Atom     -1.096916
   77 Atom     -1.096892
 -----------------------------------------------------------------
 Leave Link  602 at Tue Oct  3 18:35:44 2023, MaxMem= 64424509440 cpu:              86.0 elap:               4.4
 (Enter /temporario/apps/gnu/g16/l9999.exe)
 Unable to Open any file for archive entry.
 1\1\GINC-AGUIA4-BM-0027\SP\RM06\6-311G(d,p)\C39H20F6N6O3S3\9083010\03-
 Oct-2023\0\\#P M06/6-311G(d,p) Guess=Read Geom=Check SCF(Tight) SCRF(P
 CM, solvent=n-Octanol) pop=chelpg\\P(Qx8O-T) trimer charge population 
 via CHELPG with organic solvent n-Octanol\\0,1\C,0,-0.2792195688,-10.1
 514067629,0.0379213114\C,0,1.4422842651,-8.638404523,-0.6201262912\C,0
 ,2.4183495109,-9.6117311385,-0.2928279812\C,0,2.0246917772,-10.8665051
 011,0.2002844344\C,0,0.6944739765,-11.1087700217,0.357030254\C,0,4.074
 41563,-8.1823292846,-0.8896679791\C,0,3.1015222517,-7.1899051024,-1.21
 69349621\N,0,3.7466102555,-9.3555141286,-0.4417817018\N,0,1.8342220766
 ,-7.4238696882,-1.0843477918\C,0,0.0452727369,-8.9071661472,-0.4681880
 945\F,0,0.2676246694,-12.27355013,0.8337189112\F,0,-1.5423369268,-10.5
 090041454,0.2660495559\C,0,-2.6335697167,-2.2345659755,-2.0490147896\C
 ,0,-4.6916213999,-2.837939102,-1.0250774886\C,0,-4.2049704659,-4.15965
 69944,-0.8515426773\C,0,-2.9036764852,-4.5383634985,-1.3073905843\C,0,
 -2.157443827,-3.5387217715,-1.8880910908\C,0,-6.1465869413,-4.73738754
 16,0.206410518\C,0,-6.6341229702,-3.4135764329,0.0093849712\H,0,-6.765
 681261,-5.4661318897,0.7269990469\N,0,-4.9712183131,-5.0846445614,-0.2
 129203741\N,0,-5.9265513593,-2.5000048725,-0.5784250686\C,0,-3.8875541
 752,-1.8342806116,-1.6462027573\F,0,-0.9344668933,-3.7791222121,-2.360
 570324\F,0,-1.8089108103,-1.3813338021,-2.6516112909\C,0,-5.0447935044
 ,5.6802699723,-2.8121165362\C,0,-3.1431834747,5.5458167815,-1.40953572
 43\C,0,-3.3086177034,4.1394932477,-1.3452349143\C,0,-4.3734363696,3.46
 87981551,-2.0203109446\C,0,-5.2050081723,4.2920953543,-2.7509798057\C,
 0,-1.4648879506,3.9797151544,0.000271126\C,0,-1.3162821117,5.394849038
 5,-0.0553897576\H,0,-0.7588528268,3.3852115923,0.5769001653\N,0,-2.434
 9930983,3.3917639637,-0.6242667464\N,0,-2.1281382266,6.1436596137,-0.7
 373717566\O,0,-0.2983541009,5.9024501382,0.6289427217\C,0,-3.896279011
 9,7.8098385702,-2.2941347587\C,0,-4.3540422653,8.6051219079,-3.3181898
 499\C,0,-4.1451739241,9.9846868495,-3.1056977186\H,0,-4.8238008683,8.2
 061854426,-4.2066236822\C,0,-3.5409148514,10.2411896655,-1.9125418146\
 H,0,-4.4295827983,10.7535459249,-3.8138302076\C,0,-4.0273257555,6.3616
 356736,-2.175503577\F,0,-6.2259965114,3.8054557281,-3.4555034858\F,0,-
 5.9535530072,6.3252537059,-3.5394580419\H,0,2.7655135996,-11.615530717
 6,0.453007118\H,0,-3.2504054058,11.1972007511,-1.4987566158\C,0,-4.359
 4647722,-0.4669071102,-1.8436164002\C,0,-5.6275475414,-0.049318086,-2.
 1595686274\C,0,-5.7484171713,1.3461589286,-2.2425013062\H,0,-6.4472704
 353,-0.735488036,-2.3241570476\C,0,-4.5829851768,2.0270567668,-1.96495
 94401\H,0,-6.6751196998,1.8412588219,-2.4947075983\C,0,-0.9973019909,-
 7.9424926697,-0.8054421167\C,0,-2.3144349269,-8.2160283113,-1.10139766
 18\C,0,-3.0999325108,-7.072609102,-1.3081353205\H,0,-2.7058328652,-9.2
 210060546,-1.1740693818\C,0,-2.3989449572,-5.900640793,-1.1734300175\H
 ,0,-4.1536471395,-7.1015788296,-1.5492939329\S,0,-0.7243644129,-6.2223
 496838,-0.8269985977\S,0,-3.3075494935,0.8965740957,-1.5933689766\S,0,
 -3.1774182268,8.801969369,-1.0466433153\C,0,-0.1405560468,7.318658858,
 0.6012216553\H,0,3.431308957,-6.2206274392,-1.5862553082\O,0,5.3421762
 841,-7.8287494367,-1.0723658944\C,0,6.3377849788,-8.7972024969,-0.7555
 081965\O,0,-7.8533799595,-3.1597813619,0.4740464783\C,0,-8.3586380947,
 -1.8428068007,0.2713895172\H,0,-9.3314484856,-1.8190534183,0.758759635
 \H,0,-8.4665544755,-1.6323242232,-0.7965936732\H,0,-7.6913695293,-1.09
 73338651,0.7122595442\H,0,0.7520853571,7.5297240411,1.186841047\H,0,-1
 .010272548,7.8110441559,1.0445279981\H,0,-0.0172505655,7.6749023037,-0
 .4251153595\H,0,7.2932328776,-8.3217862702,-0.9687275591\H,0,6.2147356
 024,-9.6935070297,-1.3691482725\H,0,6.2811792712,-9.0792973962,0.29912
 51803\\Version=EM64L-G16RevC.01\State=1-A\HF=-3844.9661455\RMSD=4.496e
 -09\Dipole=0.9493523,1.3603059,0.9038358\Quadrupole=21.3186876,6.10967
 77,-27.4283654,-5.8376526,1.8795258,12.8267538\PG=C01 [X(C39H20F6N6O3S
 3)]\\@
 The archive entry for this job was punched.


 ABALONE: AN EXPRESSION OF DISBELIEF.
 Job cpu time:       0 days  0 hours 42 minutes 57.7 seconds.
 Elapsed time:       0 days  0 hours  2 minutes 22.5 seconds.
 File lengths (MBytes):  RWF=   1424 Int=      0 D2E=      0 Chk=    272 Scr=      8
 Normal termination of Gaussian 16 at Tue Oct  3 18:35:45 2023.
